
     Program PWSCF v.5.4.0 starts on  4Sep2017 at  1:50:32 

     This program is part of the open-source Quantum ESPRESSO suite
     for quantum simulation of materials; please cite
         "P. Giannozzi et al., J. Phys.:Condens. Matter 21 395502 (2009);
          URL http://www.quantum-espresso.org", 
     in publications or presentations arising from this work. More details at
     http://www.quantum-espresso.org/quote

     Serial version
     Waiting for input...
     Reading input from standard input

     Current dimensions of program PWSCF are:
     Max number of different atomic species (ntypx) = 10
     Max number of k-points (npk) =  40000
     Max angular momentum in pseudopotentials (lmaxx) =  3

     G-vector sticks info
     --------------------
     sticks:   dense  smooth     PW     G-vecs:    dense   smooth      PW
     Sum         433     433    253                 5985     5985    2741



     bravais-lattice index     =            2
     lattice parameter (alat)  =      10.2623  a.u.
     unit-cell volume          =     270.1967 (a.u.)^3
     number of atoms/cell      =            2
     number of atomic types    =            1
     number of electrons       =         8.00
     number of Kohn-Sham states=            8
     kinetic-energy cutoff     =      60.0000  Ry
     charge density cutoff     =     120.0000  Ry
     convergence threshold     =      1.0E-06
     mixing beta               =       0.7000
     number of iterations used =            8  plain     mixing
     Exchange-correlation      =  SLA  PZ   NOGX NOGC ( 1  1  0  0 0 0)
     nstep                     =           50


     celldm(1)=  10.262347  celldm(2)=   0.000000  celldm(3)=   0.000000
     celldm(4)=   0.000000  celldm(5)=   0.000000  celldm(6)=   0.000000

     crystal axes: (cart. coord. in units of alat)
               a(1) = (  -0.500000   0.000000   0.500000 )  
               a(2) = (   0.000000   0.500000   0.500000 )  
               a(3) = (  -0.500000   0.500000   0.000000 )  

     reciprocal axes: (cart. coord. in units 2 pi/alat)
               b(1) = ( -1.000000 -1.000000  1.000000 )  
               b(2) = (  1.000000  1.000000  1.000000 )  
               b(3) = ( -1.000000  1.000000 -1.000000 )  


     PseudoPot. # 1 for Si read from file:
     ./Si.pz-vbc.UPF
     MD5 check sum: 6dfa03ddd5817404712e03e4d12deb78
     Pseudo is Norm-conserving, Zval =  4.0
     Generated by new atomic code, or converted to UPF format
     Using radial grid of  431 points,  2 beta functions with: 
                l(1) =   0
                l(2) =   1

     atomic species   valence    mass     pseudopotential
        Si             4.00    28.08550     Si( 1.00)

     24 Sym. Ops. (no inversion) found
          (note: 24 additional sym.ops. were found but ignored
           their fractional translations are incommensurate with FFT grid)

                                    s                        frac. trans.

      isym =  1     identity                                     

 cryst.   s( 1) = (     1          0          0      )
                  (     0          1          0      )
                  (     0          0          1      )

 cart.    s( 1) = (  1.0000000  0.0000000  0.0000000 )
                  (  0.0000000  1.0000000  0.0000000 )
                  (  0.0000000  0.0000000  1.0000000 )


      isym =  2     180 deg rotation - cart. axis [0,0,1]        

 cryst.   s( 2) = (     0          1         -1      )
                  (     1          0         -1      )
                  (     0          0         -1      )

 cart.    s( 2) = ( -1.0000000  0.0000000  0.0000000 )
                  (  0.0000000 -1.0000000  0.0000000 )
                  (  0.0000000  0.0000000  1.0000000 )


      isym =  3     180 deg rotation - cart. axis [0,1,0]        

 cryst.   s( 3) = (    -1          0          0      )
                  (    -1          0          1      )
                  (    -1          1          0      )

 cart.    s( 3) = ( -1.0000000  0.0000000  0.0000000 )
                  (  0.0000000  1.0000000  0.0000000 )
                  (  0.0000000  0.0000000 -1.0000000 )


      isym =  4     180 deg rotation - cart. axis [1,0,0]        

 cryst.   s( 4) = (     0         -1          1      )
                  (     0         -1          0      )
                  (     1         -1          0      )

 cart.    s( 4) = (  1.0000000  0.0000000  0.0000000 )
                  (  0.0000000 -1.0000000  0.0000000 )
                  (  0.0000000  0.0000000 -1.0000000 )


      isym =  5     120 deg rotation - cart. axis [-1,-1,-1]     

 cryst.   s( 5) = (    -1          0          1      )
                  (    -1          1          0      )
                  (    -1          0          0      )

 cart.    s( 5) = (  0.0000000  1.0000000  0.0000000 )
                  (  0.0000000  0.0000000  1.0000000 )
                  (  1.0000000  0.0000000  0.0000000 )


      isym =  6     120 deg rotation - cart. axis [-1,1,1]       

 cryst.   s( 6) = (     0          1          0      )
                  (     0          0          1      )
                  (     1          0          0      )

 cart.    s( 6) = (  0.0000000 -1.0000000  0.0000000 )
                  (  0.0000000  0.0000000  1.0000000 )
                  ( -1.0000000  0.0000000  0.0000000 )


      isym =  7     120 deg rotation - cart. axis [1,1,-1]       

 cryst.   s( 7) = (     1          0         -1      )
                  (     0          0         -1      )
                  (     0          1         -1      )

 cart.    s( 7) = (  0.0000000  1.0000000  0.0000000 )
                  (  0.0000000  0.0000000 -1.0000000 )
                  ( -1.0000000  0.0000000  0.0000000 )


      isym =  8     120 deg rotation - cart. axis [1,-1,1]       

 cryst.   s( 8) = (     0         -1          0      )
                  (     1         -1          0      )
                  (     0         -1          1      )

 cart.    s( 8) = (  0.0000000 -1.0000000  0.0000000 )
                  (  0.0000000  0.0000000 -1.0000000 )
                  (  1.0000000  0.0000000  0.0000000 )


      isym =  9     120 deg rotation - cart. axis [1,1,1]        

 cryst.   s( 9) = (     0          0         -1      )
                  (     0          1         -1      )
                  (     1          0         -1      )

 cart.    s( 9) = (  0.0000000  0.0000000  1.0000000 )
                  (  1.0000000  0.0000000  0.0000000 )
                  (  0.0000000  1.0000000  0.0000000 )


      isym = 10     120 deg rotation - cart. axis [-1,1,-1]      

 cryst.   s(10) = (    -1          1          0      )
                  (    -1          0          0      )
                  (    -1          0          1      )

 cart.    s(10) = (  0.0000000  0.0000000  1.0000000 )
                  ( -1.0000000  0.0000000  0.0000000 )
                  (  0.0000000 -1.0000000  0.0000000 )


      isym = 11     120 deg rotation - cart. axis [1,-1,-1]      

 cryst.   s(11) = (     0          0          1      )
                  (     1          0          0      )
                  (     0          1          0      )

 cart.    s(11) = (  0.0000000  0.0000000 -1.0000000 )
                  ( -1.0000000  0.0000000  0.0000000 )
                  (  0.0000000  1.0000000  0.0000000 )


      isym = 12     120 deg rotation - cart. axis [-1,-1,1]      

 cryst.   s(12) = (     1         -1          0      )
                  (     0         -1          1      )
                  (     0         -1          0      )

 cart.    s(12) = (  0.0000000  0.0000000 -1.0000000 )
                  (  1.0000000  0.0000000  0.0000000 )
                  (  0.0000000 -1.0000000  0.0000000 )


      isym = 13     inv. 180 deg rotation - cart. axis [1,1,0]   

 cryst.   s(13) = (     0          1          0      )
                  (     1          0          0      )
                  (     0          0          1      )

 cart.    s(13) = (  0.0000000 -1.0000000  0.0000000 )
                  ( -1.0000000  0.0000000  0.0000000 )
                  (  0.0000000  0.0000000  1.0000000 )


      isym = 14     inv. 180 deg rotation - cart. axis [1,-1,0]  

 cryst.   s(14) = (     1          0         -1      )
                  (     0          1         -1      )
                  (     0          0         -1      )

 cart.    s(14) = (  0.0000000  1.0000000  0.0000000 )
                  (  1.0000000  0.0000000  0.0000000 )
                  (  0.0000000  0.0000000  1.0000000 )


      isym = 15     inv.  90 deg rotation - cart. axis [0,0,-1]  

 cryst.   s(15) = (     0         -1          0      )
                  (     0         -1          1      )
                  (     1         -1          0      )

 cart.    s(15) = (  0.0000000 -1.0000000  0.0000000 )
                  (  1.0000000  0.0000000  0.0000000 )
                  (  0.0000000  0.0000000 -1.0000000 )


      isym = 16     inv.  90 deg rotation - cart. axis [0,0,1]   

 cryst.   s(16) = (    -1          0          1      )
                  (    -1          0          0      )
                  (    -1          1          0      )

 cart.    s(16) = (  0.0000000  1.0000000  0.0000000 )
                  ( -1.0000000  0.0000000  0.0000000 )
                  (  0.0000000  0.0000000 -1.0000000 )


      isym = 17     inv. 180 deg rotation - cart. axis [1,0,1]   

 cryst.   s(17) = (     1          0          0      )
                  (     0          0          1      )
                  (     0          1          0      )

 cart.    s(17) = (  0.0000000  0.0000000 -1.0000000 )
                  (  0.0000000  1.0000000  0.0000000 )
                  ( -1.0000000  0.0000000  0.0000000 )


      isym = 18     inv. 180 deg rotation - cart. axis [-1,0,1]  

 cryst.   s(18) = (    -1          0          0      )
                  (    -1          1          0      )
                  (    -1          0          1      )

 cart.    s(18) = (  0.0000000  0.0000000  1.0000000 )
                  (  0.0000000  1.0000000  0.0000000 )
                  (  1.0000000  0.0000000  0.0000000 )


      isym = 19     inv.  90 deg rotation - cart. axis [0,1,0]   

 cryst.   s(19) = (     0         -1          1      )
                  (     1         -1          0      )
                  (     0         -1          0      )

 cart.    s(19) = (  0.0000000  0.0000000 -1.0000000 )
                  (  0.0000000 -1.0000000  0.0000000 )
                  (  1.0000000  0.0000000  0.0000000 )


      isym = 20     inv.  90 deg rotation - cart. axis [0,-1,0]  

 cryst.   s(20) = (     0          1         -1      )
                  (     0          0         -1      )
                  (     1          0         -1      )

 cart.    s(20) = (  0.0000000  0.0000000  1.0000000 )
                  (  0.0000000 -1.0000000  0.0000000 )
                  ( -1.0000000  0.0000000  0.0000000 )


      isym = 21     inv. 180 deg rotation - cart. axis [0,1,1]   

 cryst.   s(21) = (     1         -1          0      )
                  (     0         -1          0      )
                  (     0         -1          1      )

 cart.    s(21) = (  1.0000000  0.0000000  0.0000000 )
                  (  0.0000000  0.0000000 -1.0000000 )
                  (  0.0000000 -1.0000000  0.0000000 )


      isym = 22     inv. 180 deg rotation - cart. axis [0,1,-1]  

 cryst.   s(22) = (     0          0          1      )
                  (     0          1          0      )
                  (     1          0          0      )

 cart.    s(22) = (  1.0000000  0.0000000  0.0000000 )
                  (  0.0000000  0.0000000  1.0000000 )
                  (  0.0000000  1.0000000  0.0000000 )


      isym = 23     inv.  90 deg rotation - cart. axis [-1,0,0]  

 cryst.   s(23) = (     0          0         -1      )
                  (     1          0         -1      )
                  (     0          1         -1      )

 cart.    s(23) = ( -1.0000000  0.0000000  0.0000000 )
                  (  0.0000000  0.0000000 -1.0000000 )
                  (  0.0000000  1.0000000  0.0000000 )


      isym = 24     inv.  90 deg rotation - cart. axis [1,0,0]   

 cryst.   s(24) = (    -1          1          0      )
                  (    -1          0          1      )
                  (    -1          0          0      )

 cart.    s(24) = ( -1.0000000  0.0000000  0.0000000 )
                  (  0.0000000  0.0000000  1.0000000 )
                  (  0.0000000 -1.0000000  0.0000000 )


     point group T_d (-43m) 
     there are  5 classes
     the character table:

       E     8C3   3C2   6S4   6s_d 
A_1    1.00  1.00  1.00  1.00  1.00
A_2    1.00  1.00  1.00 -1.00 -1.00
E      2.00 -1.00  2.00  0.00  0.00
T_1    3.00  0.00 -1.00  1.00 -1.00
T_2    3.00  0.00 -1.00 -1.00  1.00

     the symmetry operations in each class and the name of the first element:

     E        1
          identity                                               
     8C3      5    7    8    6   12    9   10   11
          120 deg rotation - cart. axis [-1,-1,-1]               
     3C2      2    3    4
          180 deg rotation - cart. axis [0,0,1]                  
     6S4     15   16   20   19   23   24
          inv.  90 deg rotation - cart. axis [0,0,-1]            
     6s_d    13   14   17   18   21   22
          inv. 180 deg rotation - cart. axis [1,1,0]             

   Cartesian axes

     site n.     atom                  positions (alat units)
         1           Si  tau(   1) = (   0.0000000   0.0000000   0.0000000  )
         2           Si  tau(   2) = (   0.2500000   0.2500000   0.2500000  )

   Crystallographic axes

     site n.     atom                  positions (cryst. coord.)
         1           Si  tau(   1) = (  0.0000000  0.0000000  0.0000000  )
         2           Si  tau(   2) = ( -0.2500000  0.7500000 -0.2500000  )

     number of k points=    47  gaussian smearing, width (Ry)=  0.0020
                       cart. coord. in units 2pi/alat
        k(    1) = (   0.0000000   0.0000000   0.0000000), wk =   0.0020000
        k(    2) = (  -0.1000000   0.1000000  -0.1000000), wk =   0.0160000
        k(    3) = (  -0.2000000   0.2000000  -0.2000000), wk =   0.0160000
        k(    4) = (  -0.3000000   0.3000000  -0.3000000), wk =   0.0160000
        k(    5) = (  -0.4000000   0.4000000  -0.4000000), wk =   0.0160000
        k(    6) = (   0.5000000  -0.5000000   0.5000000), wk =   0.0080000
        k(    7) = (   0.0000000   0.2000000   0.0000000), wk =   0.0120000
        k(    8) = (  -0.1000000   0.3000000  -0.1000000), wk =   0.0480000
        k(    9) = (  -0.2000000   0.4000000  -0.2000000), wk =   0.0480000
        k(   10) = (  -0.3000000   0.5000000  -0.3000000), wk =   0.0480000
        k(   11) = (   0.6000000  -0.4000000   0.6000000), wk =   0.0480000
        k(   12) = (   0.5000000  -0.3000000   0.5000000), wk =   0.0480000
        k(   13) = (   0.4000000  -0.2000000   0.4000000), wk =   0.0480000
        k(   14) = (   0.3000000  -0.1000000   0.3000000), wk =   0.0480000
        k(   15) = (   0.2000000   0.0000000   0.2000000), wk =   0.0240000
        k(   16) = (   0.0000000   0.4000000   0.0000000), wk =   0.0120000
        k(   17) = (  -0.1000000   0.5000000  -0.1000000), wk =   0.0480000
        k(   18) = (  -0.2000000   0.6000000  -0.2000000), wk =   0.0480000
        k(   19) = (   0.7000000  -0.3000000   0.7000000), wk =   0.0480000
        k(   20) = (   0.6000000  -0.2000000   0.6000000), wk =   0.0480000
        k(   21) = (   0.5000000  -0.1000000   0.5000000), wk =   0.0480000
        k(   22) = (   0.4000000   0.0000000   0.4000000), wk =   0.0240000
        k(   23) = (   0.0000000   0.6000000   0.0000000), wk =   0.0120000
        k(   24) = (  -0.1000000   0.7000000  -0.1000000), wk =   0.0480000
        k(   25) = (   0.8000000  -0.2000000   0.8000000), wk =   0.0480000
        k(   26) = (   0.7000000  -0.1000000   0.7000000), wk =   0.0480000
        k(   27) = (   0.6000000  -0.0000000   0.6000000), wk =   0.0240000
        k(   28) = (   0.0000000   0.8000000   0.0000000), wk =   0.0120000
        k(   29) = (   0.9000000  -0.1000000   0.9000000), wk =   0.0480000
        k(   30) = (   0.8000000   0.0000000   0.8000000), wk =   0.0240000
        k(   31) = (   0.0000000  -1.0000000   0.0000000), wk =   0.0060000
        k(   32) = (  -0.2000000   0.4000000   0.0000000), wk =   0.0480000
        k(   33) = (  -0.3000000   0.5000000  -0.1000000), wk =   0.0960000
        k(   34) = (   0.6000000  -0.4000000   0.8000000), wk =   0.0960000
        k(   35) = (   0.5000000  -0.3000000   0.7000000), wk =   0.0480000
        k(   36) = (  -0.2000000   0.6000000   0.0000000), wk =   0.0480000
        k(   37) = (   0.7000000  -0.3000000   0.9000000), wk =   0.0960000
        k(   38) = (   0.6000000  -0.2000000   0.8000000), wk =   0.0960000
        k(   39) = (   0.5000000  -0.1000000   0.7000000), wk =   0.0960000
        k(   40) = (   0.4000000   0.0000000   0.6000000), wk =   0.0480000
        k(   41) = (   0.8000000  -0.2000000   1.0000000), wk =   0.0480000
        k(   42) = (   0.7000000  -0.1000000   0.9000000), wk =   0.0960000
        k(   43) = (   0.6000000   0.0000000   0.8000000), wk =   0.0480000
        k(   44) = (  -0.2000000  -1.0000000   0.0000000), wk =   0.0240000
        k(   45) = (   0.6000000  -0.2000000   1.0000000), wk =   0.0480000
        k(   46) = (   0.5000000  -0.1000000   0.9000000), wk =   0.0480000
        k(   47) = (  -0.4000000  -1.0000000   0.0000000), wk =   0.0240000

                       cryst. coord.
        k(    1) = (   0.0000000   0.0000000   0.0000000), wk =   0.0020000
        k(    2) = (   0.0000000   0.0000000   0.1000000), wk =   0.0160000
        k(    3) = (   0.0000000   0.0000000   0.2000000), wk =   0.0160000
        k(    4) = (   0.0000000   0.0000000   0.3000000), wk =   0.0160000
        k(    5) = (   0.0000000   0.0000000   0.4000000), wk =   0.0160000
        k(    6) = (   0.0000000   0.0000000  -0.5000000), wk =   0.0080000
        k(    7) = (   0.0000000   0.1000000   0.1000000), wk =   0.0120000
        k(    8) = (   0.0000000   0.1000000   0.2000000), wk =   0.0480000
        k(    9) = (   0.0000000   0.1000000   0.3000000), wk =   0.0480000
        k(   10) = (   0.0000000   0.1000000   0.4000000), wk =   0.0480000
        k(   11) = (   0.0000000   0.1000000  -0.5000000), wk =   0.0480000
        k(   12) = (   0.0000000   0.1000000  -0.4000000), wk =   0.0480000
        k(   13) = (   0.0000000   0.1000000  -0.3000000), wk =   0.0480000
        k(   14) = (   0.0000000   0.1000000  -0.2000000), wk =   0.0480000
        k(   15) = (   0.0000000   0.1000000  -0.1000000), wk =   0.0240000
        k(   16) = (   0.0000000   0.2000000   0.2000000), wk =   0.0120000
        k(   17) = (   0.0000000   0.2000000   0.3000000), wk =   0.0480000
        k(   18) = (   0.0000000   0.2000000   0.4000000), wk =   0.0480000
        k(   19) = (   0.0000000   0.2000000  -0.5000000), wk =   0.0480000
        k(   20) = (   0.0000000   0.2000000  -0.4000000), wk =   0.0480000
        k(   21) = (   0.0000000   0.2000000  -0.3000000), wk =   0.0480000
        k(   22) = (   0.0000000   0.2000000  -0.2000000), wk =   0.0240000
        k(   23) = (   0.0000000   0.3000000   0.3000000), wk =   0.0120000
        k(   24) = (   0.0000000   0.3000000   0.4000000), wk =   0.0480000
        k(   25) = (   0.0000000   0.3000000  -0.5000000), wk =   0.0480000
        k(   26) = (   0.0000000   0.3000000  -0.4000000), wk =   0.0480000
        k(   27) = (   0.0000000   0.3000000  -0.3000000), wk =   0.0240000
        k(   28) = (   0.0000000   0.4000000   0.4000000), wk =   0.0120000
        k(   29) = (   0.0000000   0.4000000  -0.5000000), wk =   0.0480000
        k(   30) = (   0.0000000   0.4000000  -0.4000000), wk =   0.0240000
        k(   31) = (   0.0000000  -0.5000000  -0.5000000), wk =   0.0060000
        k(   32) = (   0.1000000   0.2000000   0.3000000), wk =   0.0480000
        k(   33) = (   0.1000000   0.2000000   0.4000000), wk =   0.0960000
        k(   34) = (   0.1000000   0.2000000  -0.5000000), wk =   0.0960000
        k(   35) = (   0.1000000   0.2000000  -0.4000000), wk =   0.0480000
        k(   36) = (   0.1000000   0.3000000   0.4000000), wk =   0.0480000
        k(   37) = (   0.1000000   0.3000000  -0.5000000), wk =   0.0960000
        k(   38) = (   0.1000000   0.3000000  -0.4000000), wk =   0.0960000
        k(   39) = (   0.1000000   0.3000000  -0.3000000), wk =   0.0960000
        k(   40) = (   0.1000000   0.3000000  -0.2000000), wk =   0.0480000
        k(   41) = (   0.1000000   0.4000000  -0.5000000), wk =   0.0480000
        k(   42) = (   0.1000000   0.4000000  -0.4000000), wk =   0.0960000
        k(   43) = (   0.1000000   0.4000000  -0.3000000), wk =   0.0480000
        k(   44) = (   0.1000000  -0.5000000  -0.4000000), wk =   0.0240000
        k(   45) = (   0.2000000   0.4000000  -0.4000000), wk =   0.0480000
        k(   46) = (   0.2000000   0.4000000  -0.3000000), wk =   0.0480000
        k(   47) = (   0.2000000  -0.5000000  -0.3000000), wk =   0.0240000

     Dense  grid:     5985 G-vectors     FFT dimensions: (  25,  25,  25)

     Largest allocated arrays     est. size (Mb)     dimensions
        Kohn-Sham Wavefunctions         0.26 Mb     (    2154,    8)
        NL pseudopotentials             0.26 Mb     (    2154,    8)
        Each V/rho on FFT grid          0.24 Mb     (   15625)
        Each G-vector array             0.05 Mb     (    5985)
        G-vector shells                 0.05 Mb     (    5985)
     Largest temporary arrays     est. size (Mb)     dimensions
        Auxiliary wavefunctions         1.05 Mb     (    2154,   32)
        Each subspace H/S matrix        0.02 Mb     (      32,   32)
        Each <psi_i|beta_j> matrix      0.00 Mb     (       8,    8)
        Arrays for rho mixing           1.91 Mb     (   15625,    8)

     Initial potential from superposition of free atoms

     starting charge    7.99901, renormalised to    8.00000
     Starting wfc are    8 randomized atomic wfcs

     total cpu time spent up to now is        0.5 secs

     per-process dynamical memory:    16.5 Mb

     Self-consistent Calculation

     iteration #  1     ecut=    60.00 Ry     beta=0.70
     Davidson diagonalization with overlap
     ethr =  1.00E-02,  avg # of iterations =  3.8

     Threshold (ethr) on eigenvalues was too large:
     Diagonalizing with lowered threshold

     Davidson diagonalization with overlap
     ethr =  7.79E-04,  avg # of iterations =  1.0

     total cpu time spent up to now is        2.1 secs

     total energy              =     -15.84969069 Ry
     Harris-Foulkes estimate   =     -15.87019613 Ry
     estimated scf accuracy    <       0.06082414 Ry

     iteration #  2     ecut=    60.00 Ry     beta=0.70
     Davidson diagonalization with overlap
     ethr =  7.60E-04,  avg # of iterations =  1.0

     total cpu time spent up to now is        2.7 secs

     total energy              =     -15.85325890 Ry
     Harris-Foulkes estimate   =     -15.85347821 Ry
     estimated scf accuracy    <       0.00182211 Ry

     iteration #  3     ecut=    60.00 Ry     beta=0.70
     Davidson diagonalization with overlap
     ethr =  2.28E-05,  avg # of iterations =  2.8

     total cpu time spent up to now is        3.4 secs

     total energy              =     -15.85335917 Ry
     Harris-Foulkes estimate   =     -15.85336334 Ry
     estimated scf accuracy    <       0.00005212 Ry

     iteration #  4     ecut=    60.00 Ry     beta=0.70
     Davidson diagonalization with overlap
     ethr =  6.51E-07,  avg # of iterations =  2.3

     total cpu time spent up to now is        4.1 secs

     End of self-consistent calculation

          k = 0.0000 0.0000 0.0000 (  2109 PWs)   bands (ev):

    -5.8876   6.0387   6.0387   6.0387   8.5994   8.5994   8.5994   9.2971

     occupation numbers 
     1.0000   1.0000   1.0000   1.0000   0.0000   0.0000   0.0000   0.0000

          k =-0.1000 0.1000-0.1000 (  2106 PWs)   bands (ev):

    -5.7567   4.8953   5.8407   5.8407   8.5834   8.8900   8.8900  10.2234

     occupation numbers 
     1.0000   1.0000   1.0000   1.0000   0.0000   0.0000   0.0000   0.0000

          k =-0.2000 0.2000-0.2000 (  2100 PWs)   bands (ev):

    -5.3699   3.0358   5.4603   5.4603   8.2137   9.3958   9.3958  11.9555

     occupation numbers 
     1.0000   1.0000   1.0000   1.0000   0.0000   0.0000   0.0000   0.0000

          k =-0.3000 0.3000-0.3000 (  2121 PWs)   bands (ev):

    -4.7530   1.2499   5.1255   5.1255   7.8489   9.5668   9.5668  13.5167

     occupation numbers 
     1.0000   1.0000   1.0000   1.0000   0.0000   0.0000   0.0000   0.0000

          k =-0.4000 0.4000-0.4000 (  2117 PWs)   bands (ev):

    -4.0014  -0.2303   4.9130   4.9130   7.6097   9.4505   9.4505  13.7181

     occupation numbers 
     1.0000   1.0000   1.0000   1.0000   0.0000   0.0000   0.0000   0.0000

          k = 0.5000-0.5000 0.5000 (  2120 PWs)   bands (ev):

    -3.5435  -0.9347   4.8414   4.8414   7.5279   9.3750   9.3750  13.6021

     occupation numbers 
     1.0000   1.0000   1.0000   1.0000   0.0000   0.0000   0.0000   0.0000

          k = 0.0000 0.2000 0.0000 (  2121 PWs)   bands (ev):

    -5.7127   5.1040   5.4628   5.4628   8.2059   9.3848   9.3848  10.1199

     occupation numbers 
     1.0000   1.0000   1.0000   1.0000   0.0000   0.0000   0.0000   0.0000

          k =-0.1000 0.3000-0.1000 (  2104 PWs)   bands (ev):

    -5.4101   3.5955   5.0277   5.1982   8.2562   9.4174  10.0345  10.9621

     occupation numbers 
     1.0000   1.0000   1.0000   1.0000   0.0000   0.0000   0.0000   0.0000

          k =-0.2000 0.4000-0.2000 (  2123 PWs)   bands (ev):

    -4.8656   1.8360   4.7085   4.7636   8.3763   9.4059  10.3157  11.3141

     occupation numbers 
     1.0000   1.0000   1.0000   1.0000   0.0000   0.0000   0.0000   0.0000

          k =-0.3000 0.5000-0.3000 (  2121 PWs)   bands (ev):

    -4.1385   0.2600   4.3515   4.5610   8.2299   9.3639  10.1393  12.3698

     occupation numbers 
     1.0000   1.0000   1.0000   1.0000   0.0000   0.0000   0.0000   0.0000

          k = 0.6000-0.4000 0.6000 (  2112 PWs)   bands (ev):

    -3.4906  -0.7844   4.0606   4.5942   8.1444   9.3288   9.8739  13.7340

     occupation numbers 
     1.0000   1.0000   1.0000   1.0000   0.0000   0.0000   0.0000   0.0000

          k = 0.5000-0.3000 0.5000 (  2112 PWs)   bands (ev):

    -3.6604  -0.5330   3.9315   4.7945   8.2068   9.4587   9.7196  13.9622

     occupation numbers 
     1.0000   1.0000   1.0000   1.0000   0.0000   0.0000   0.0000   0.0000

          k = 0.4000-0.2000 0.4000 (  2119 PWs)   bands (ev):

    -4.3954   0.7553   3.9906   5.1296   8.4119   9.6499   9.7100  12.9547

     occupation numbers 
     1.0000   1.0000   1.0000   1.0000   0.0000   0.0000   0.0000   0.0000

          k = 0.3000-0.1000 0.3000 (  2106 PWs)   bands (ev):

    -5.0734   2.4065   4.2653   5.5360   8.7245   9.4060   9.7211  11.9139

     occupation numbers 
     1.0000   1.0000   1.0000   1.0000   0.0000   0.0000   0.0000   0.0000

          k = 0.2000 0.0000 0.2000 (  2107 PWs)   bands (ev):

    -5.5400   4.0155   4.8755   5.8627   8.9574   8.9945   9.1193  11.1410

     occupation numbers 
     1.0000   1.0000   1.0000   1.0000   0.0000   0.0000   0.0000   0.0000

          k = 0.0000 0.4000 0.0000 (  2093 PWs)   bands (ev):

    -5.1920   3.4320   4.5508   4.5508   7.4659   9.8747  10.9112  10.9112

     occupation numbers 
     1.0000   1.0000   1.0000   1.0000   0.0000   0.0000   0.0000   0.0000

          k =-0.1000 0.5000-0.1000 (  2113 PWs)   bands (ev):

    -4.7258   2.1884   4.0403   4.2019   7.5615   9.4460  11.1549  11.4993

     occupation numbers 
     1.0000   1.0000   1.0000   1.0000   0.0000   0.0000   0.0000   0.0000

          k =-0.2000 0.6000-0.2000 (  2112 PWs)   bands (ev):

    -4.0486   0.7493   3.4090   4.0420   7.7738  10.0784  10.9205  11.4565

     occupation numbers 
     1.0000   1.0000   1.0000   1.0000   0.0000   0.0000   0.0000   0.0000

          k = 0.7000-0.3000 0.7000 (  2117 PWs)   bands (ev):

    -3.3120  -0.4414   2.8975   4.0862   7.8386  10.6802  11.1308  11.6334

     occupation numbers 
     1.0000   1.0000   1.0000   1.0000   0.0000   0.0000   0.0000   0.0000

          k = 0.6000-0.2000 0.6000 (  2113 PWs)   bands (ev):

    -3.1564  -0.6524   2.5968   4.3252   8.0576  10.5799  10.8300  13.5338

     occupation numbers 
     1.0000   1.0000   1.0000   1.0000   0.0000   0.0000   0.0000   0.0000

          k = 0.5000-0.1000 0.5000 (  2114 PWs)   bands (ev):

    -3.8164   0.3420   2.5732   4.7236   8.4606  10.5602  10.5849  12.6542

     occupation numbers 
     1.0000   1.0000   1.0000   1.0000   0.0000   0.0000   0.0000   0.0000

          k = 0.4000 0.0000 0.4000 (  2109 PWs)   bands (ev):

    -4.5371   1.5826   3.0254   5.1947   8.9022  10.0242  10.2890  11.6920

     occupation numbers 
     1.0000   1.0000   1.0000   1.0000   0.0000   0.0000   0.0000   0.0000

          k = 0.0000 0.6000 0.0000 (  2105 PWs)   bands (ev):

    -4.3379   1.6512   3.8079   3.8079   6.8572   8.4055  12.6483  12.6484

     occupation numbers 
     1.0000   1.0000   1.0000   1.0000   0.0000   0.0000   0.0000   0.0000

          k =-0.1000 0.7000-0.1000 (  2114 PWs)   bands (ev):

    -3.7242   0.6488   3.1744   3.6025   7.0450   8.2366  12.9268  13.0700

     occupation numbers 
     1.0000   1.0000   1.0000   1.0000   0.0000   0.0000   0.0000   0.0000

          k = 0.8000-0.2000 0.8000 (  2130 PWs)   bands (ev):

    -2.9707  -0.3576   2.3369   3.6093   7.2219   9.3727  12.7335  12.8269

     occupation numbers 
     1.0000   1.0000   1.0000   1.0000   0.0000   0.0000   0.0000   0.0000

          k = 0.7000-0.1000 0.7000 (  2128 PWs)   bands (ev):

    -2.5456  -0.8379   1.7779   3.8256   7.4568  11.1649  12.4322  12.5741

     occupation numbers 
     1.0000   1.0000   1.0000   1.0000   0.0000   0.0000   0.0000   0.0000

          k = 0.6000-0.0000 0.6000 (  2135 PWs)   bands (ev):

    -3.0871  -0.2470   1.7507   4.2232   7.9062  11.7694  12.0028  12.7861

     occupation numbers 
     1.0000   1.0000   1.0000   1.0000   0.0000   0.0000   0.0000   0.0000

          k = 0.0000 0.8000 0.0000 (  2112 PWs)   bands (ev):

    -3.1744  -0.1051   3.3416   3.3416   6.5717   7.2998  14.4795  14.4795

     occupation numbers 
     1.0000   1.0000   1.0000   1.0000   0.0000   0.0000   0.0000   0.0000

          k = 0.9000-0.1000 0.9000 (  2125 PWs)   bands (ev):

    -2.4443  -0.9437   2.7467   3.2929   6.8061   7.5668  14.7326  14.7962

     occupation numbers 
     1.0000   1.0000   1.0000   1.0000   0.0000   0.0000   0.0000   0.0000

          k = 0.8000 0.0000 0.8000 (  2139 PWs)   bands (ev):

    -1.9622  -1.3663   1.9524   3.4608   7.0202   9.1444  14.0894  14.6494

     occupation numbers 
     1.0000   1.0000   1.0000   1.0000   0.0000   0.0000   0.0000   0.0000

          k = 0.0000-1.0000 0.0000 (  2100 PWs)   bands (ev):

    -1.7423  -1.7423   3.1835   3.1835   6.6990   6.6990  16.0365  16.0365

     occupation numbers 
     1.0000   1.0000   1.0000   1.0000   0.0000   0.0000   0.0000   0.0000

          k =-0.2000 0.4000 0.0000 (  2102 PWs)   bands (ev):

    -5.0263   2.6808   3.9514   5.0688   8.3576   9.7339  10.6003  10.6771

     occupation numbers 
     1.0000   1.0000   1.0000   1.0000   0.0000   0.0000   0.0000   0.0000

          k =-0.3000 0.5000-0.1000 (  2121 PWs)   bands (ev):

    -4.4135   1.2722   3.3620   4.6922   8.7036   9.6231  10.7076  11.1303

     occupation numbers 
     1.0000   1.0000   1.0000   1.0000   0.0000   0.0000   0.0000   0.0000

          k = 0.6000-0.4000 0.8000 (  2119 PWs)   bands (ev):

    -3.6626  -0.0957   3.1324   4.3404   8.7545   9.2905  11.0694  12.0385

     occupation numbers 
     1.0000   1.0000   1.0000   1.0000   0.0000   0.0000   0.0000   0.0000

          k = 0.5000-0.3000 0.7000 (  2124 PWs)   bands (ev):

    -3.1977  -0.7796   3.0734   4.2018   8.7829   9.1035  11.0294  13.8178

     occupation numbers 
     1.0000   1.0000   1.0000   1.0000   0.0000   0.0000   0.0000   0.0000

          k =-0.2000 0.6000 0.0000 (  2106 PWs)   bands (ev):

    -4.1874   1.2941   3.2219   3.9506   7.7784   9.0524  11.2022  12.5357

     occupation numbers 
     1.0000   1.0000   1.0000   1.0000   0.0000   0.0000   0.0000   0.0000

          k = 0.7000-0.3000 0.9000 (  2117 PWs)   bands (ev):

    -3.4647   0.1928   2.5997   3.6185   8.1578   9.7485  10.8232  12.9248

     occupation numbers 
     1.0000   1.0000   1.0000   1.0000   0.0000   0.0000   0.0000   0.0000

          k = 0.6000-0.2000 0.8000 (  2131 PWs)   bands (ev):

    -2.8088  -0.6759   2.1896   3.5623   8.3394  10.3616  11.4991  12.8544

     occupation numbers 
     1.0000   1.0000   1.0000   1.0000   0.0000   0.0000   0.0000   0.0000

          k = 0.5000-0.1000 0.7000 (  2128 PWs)   bands (ev):

    -3.0118  -0.4145   2.0362   3.8039   8.6838  10.1089  11.9324  12.7146

     occupation numbers 
     1.0000   1.0000   1.0000   1.0000   0.0000   0.0000   0.0000   0.0000

          k = 0.4000 0.0000 0.6000 (  2121 PWs)   bands (ev):

    -3.7516   0.5374   2.3365   4.2467   9.1844   9.6617  10.7047  12.2485

     occupation numbers 
     1.0000   1.0000   1.0000   1.0000   0.0000   0.0000   0.0000   0.0000

          k = 0.8000-0.2000 1.0000 (  2121 PWs)   bands (ev):

    -3.0547  -0.1895   2.8091   3.1379   7.4813   8.0668  12.7374  14.4658

     occupation numbers 
     1.0000   1.0000   1.0000   1.0000   0.0000   0.0000   0.0000   0.0000

          k = 0.7000-0.1000 0.9000 (  2128 PWs)   bands (ev):

    -2.3129  -0.9629   2.0978   3.0462   7.8310   9.2741  12.3361  14.1023

     occupation numbers 
     1.0000   1.0000   1.0000   1.0000   0.0000   0.0000   0.0000   0.0000

          k = 0.6000 0.0000 0.8000 (  2126 PWs)   bands (ev):

    -2.3146  -0.9391   1.6767   3.3176   8.1605  11.0910  11.9510  12.2609

     occupation numbers 
     1.0000   1.0000   1.0000   1.0000   0.0000   0.0000   0.0000   0.0000

          k =-0.2000-1.0000 0.0000 (  2130 PWs)   bands (ev):

    -1.6875  -1.6875   2.7661   2.7661   7.5567   7.5567  14.4553  14.4553

     occupation numbers 
     1.0000   1.0000   1.0000   1.0000   0.0000   0.0000   0.0000   0.0000

          k = 0.6000-0.2000 1.0000 (  2148 PWs)   bands (ev):

    -2.7302  -0.4872   2.0391   3.0340   9.3915   9.7566  10.4344  13.7554

     occupation numbers 
     1.0000   1.0000   1.0000   1.0000   0.0000   0.0000   0.0000   0.0000

          k = 0.5000-0.1000 0.9000 (  2138 PWs)   bands (ev):

    -2.2159  -0.9965   1.8794   2.7803   9.6589   9.9859  11.3835  11.8319

     occupation numbers 
     1.0000   1.0000   1.0000   1.0000   0.0000   0.0000   0.0000   0.0000

          k =-0.4000-1.0000 0.0000 (  2154 PWs)   bands (ev):

    -1.5904  -1.5904   2.2440   2.2440   9.4232   9.4232  11.9126  11.9126

     occupation numbers 
     1.0000   1.0000   1.0000   1.0000   0.0000   0.0000   0.0000   0.0000

     the Fermi energy is     6.4515 ev

!    total energy              =     -15.85336971 Ry
     Harris-Foulkes estimate   =     -15.85336956 Ry
     estimated scf accuracy    <       0.00000017 Ry

     The total energy is the sum of the following terms:

     one-electron contribution =       4.64685637 Ry
     hartree contribution      =       1.09394215 Ry
     xc contribution           =      -4.79708049 Ry
     ewald contribution        =     -16.79708774 Ry
     smearing contrib. (-TS)   =      -0.00000000 Ry

     convergence has been achieved in   4 iterations

     Forces acting on atoms (Ry/au):

     atom    1 type  1   force =     0.00000000    0.00000000    0.00000000
     atom    2 type  1   force =    -0.00000000    0.00000000    0.00000000
     The non-local contrib.  to forces
     atom    1 type  1   force =     0.00000000    0.00000000   -0.00000000
     atom    2 type  1   force =    -0.00000000    0.00000000   -0.00000000
     The ionic contribution  to forces
     atom    1 type  1   force =    -0.00000000   -0.00000000   -0.00000000
     atom    2 type  1   force =    -0.00000000   -0.00000000   -0.00000000
     The local contribution  to forces
     atom    1 type  1   force =     0.00000000    0.00000000   -0.00000000
     atom    2 type  1   force =    -0.00000000   -0.00000000   -0.00000000
     The core correction contribution to forces
     atom    1 type  1   force =     0.00000000    0.00000000    0.00000000
     atom    2 type  1   force =     0.00000000    0.00000000    0.00000000
     The Hubbard contrib.    to forces
     atom    1 type  1   force =     0.00000000    0.00000000    0.00000000
     atom    2 type  1   force =     0.00000000    0.00000000    0.00000000
     The SCF correction term to forces
     atom    1 type  1   force =    -0.00000000    0.00000000    0.00000000
     atom    2 type  1   force =     0.00000000   -0.00000000   -0.00000000

     Total force =     0.000000     Total SCF correction =     0.000000


     entering subroutine stress ...

          total   stress  (Ry/bohr**3)                   (kbar)     P=  -14.73
  -0.00010014  -0.00000000  -0.00000000        -14.73     -0.00     -0.00
  -0.00000000  -0.00010014   0.00000000         -0.00    -14.73      0.00
   0.00000000   0.00000000  -0.00010014          0.00      0.00    -14.73

     kinetic stress (kbar)   2250.95      0.00      0.00
                                0.00   2250.95      0.00
                                0.00     -0.00   2250.95

     local   stress (kbar)  -1419.94     -0.00      0.00
                               -0.00  -1419.94     -0.00
                                0.00     -0.00  -1419.94

     nonloc. stress (kbar)   2797.85      0.00     -0.00
                               -0.00   2797.85      0.00
                               -0.00      0.00   2797.85

     hartree stress (kbar)    198.53      0.00     -0.00
                                0.00    198.53      0.00
                               -0.00      0.00    198.53

     exc-cor stress (kbar)   -793.80      0.00      0.00
                                0.00   -793.80      0.00
                                0.00      0.00   -793.80

     corecor stress (kbar)      0.00      0.00      0.00
                                0.00      0.00      0.00
                                0.00      0.00      0.00

     ewald   stress (kbar)  -3048.32      0.00      0.00
                                0.00  -3048.32     -0.00
                                0.00     -0.00  -3048.32

     hubbard stress (kbar)      0.00      0.00      0.00
                                0.00      0.00      0.00
                                0.00      0.00      0.00

     london  stress (kbar)      0.00      0.00      0.00
                                0.00      0.00      0.00
                                0.00      0.00      0.00

     XDM     stress (kbar)      0.00      0.00      0.00
                                0.00      0.00      0.00
                                0.00      0.00      0.00

     dft-nl  stress (kbar)      0.00      0.00      0.00
                                0.00      0.00      0.00
                                0.00      0.00      0.00

     TS-vdW  stress (kbar)      0.00      0.00      0.00
                                0.00      0.00      0.00
                                0.00      0.00      0.00



     BFGS Geometry Optimization

     number of scf cycles    =   1
     number of bfgs steps    =   0

     enthalpy new            =     -15.8533697092 Ry

     new trust radius        =       0.0082305968 bohr
     new conv_thr            =       0.0000010000 Ry

     new unit-cell volume =    268.17241 a.u.^3 (    39.73905 Ang^3 )

CELL_PARAMETERS (alat= 10.26234669)
  -0.498748210   0.000000000   0.498748210
  -0.000000000   0.498748210   0.498748210
  -0.498748210   0.498748210   0.000000000

ATOMIC_POSITIONS (alat)
Si      -0.000000000   0.000000000   0.000000000
Si       0.249374105   0.249374105   0.249374105



     Writing output data file calc.save
     NEW-OLD atomic charge density approx. for the potential
     extrapolated charge    7.93962, renormalised to    8.00000

     total cpu time spent up to now is        4.8 secs

     per-process dynamical memory:    21.5 Mb

     Self-consistent Calculation

     iteration #  1     ecut=    60.00 Ry     beta=0.70
     Davidson diagonalization with overlap
     ethr =  1.00E-06,  avg # of iterations =  2.1

     total cpu time spent up to now is        5.5 secs

     total energy              =     -15.85348571 Ry
     Harris-Foulkes estimate   =     -15.82267572 Ry
     estimated scf accuracy    <       0.00002078 Ry

     iteration #  2     ecut=    60.00 Ry     beta=0.70
     Davidson diagonalization with overlap
     ethr =  2.60E-07,  avg # of iterations =  2.3

     total cpu time spent up to now is        6.3 secs

     total energy              =     -15.85352686 Ry
     Harris-Foulkes estimate   =     -15.85353308 Ry
     estimated scf accuracy    <       0.00001861 Ry

     iteration #  3     ecut=    60.00 Ry     beta=0.70
     Davidson diagonalization with overlap
     ethr =  2.33E-07,  avg # of iterations =  1.0

     total cpu time spent up to now is        6.9 secs

     total energy              =     -15.85352480 Ry
     Harris-Foulkes estimate   =     -15.85352744 Ry
     estimated scf accuracy    <       0.00000478 Ry

     iteration #  4     ecut=    60.00 Ry     beta=0.70
     Davidson diagonalization with overlap
     ethr =  5.97E-08,  avg # of iterations =  2.0

     total cpu time spent up to now is        7.6 secs

     End of self-consistent calculation

          k = 0.0000 0.0000 0.0000 (  2109 PWs)   bands (ev):

    -5.8625   6.1145   6.1145   6.1145   8.6802   8.6802   8.6802   9.4578

     occupation numbers 
     1.0000   1.0000   1.0000   1.0000   0.0000   0.0000   0.0000   0.0000

          k =-0.1003 0.1003-0.1003 (  2106 PWs)   bands (ev):

    -5.7307   4.9705   5.9151   5.9151   8.6796   8.9729   8.9729  10.3676

     occupation numbers 
     1.0000   1.0000   1.0000   1.0000   0.0000   0.0000   0.0000   0.0000

          k =-0.2005 0.2005-0.2005 (  2100 PWs)   bands (ev):

    -5.3414   3.1032   5.5325   5.5325   8.3163   9.4807   9.4807  12.0951

     occupation numbers 
     1.0000   1.0000   1.0000   1.0000   0.0000   0.0000   0.0000   0.0000

          k =-0.3008 0.3008-0.3008 (  2121 PWs)   bands (ev):

    -4.7203   1.3075   5.1960   5.1960   7.9526   9.6481   9.6481  13.6421

     occupation numbers 
     1.0000   1.0000   1.0000   1.0000   0.0000   0.0000   0.0000   0.0000

          k =-0.4010 0.4010-0.4010 (  2117 PWs)   bands (ev):

    -3.9626  -0.1825   4.9828   4.9828   7.7137   9.5272   9.5272  13.8117

     occupation numbers 
     1.0000   1.0000   1.0000   1.0000   0.0000   0.0000   0.0000   0.0000

          k = 0.5013-0.5013 0.5013 (  2120 PWs)   bands (ev):

    -3.4997  -0.8931   4.9108   4.9108   7.6320   9.4500   9.4500  13.6928

     occupation numbers 
     1.0000   1.0000   1.0000   1.0000   0.0000   0.0000   0.0000   0.0000

          k = 0.0000 0.2005 0.0000 (  2121 PWs)   bands (ev):

    -5.6865   5.1864   5.5339   5.5339   8.2844   9.4715   9.4715  10.2702

     occupation numbers 
     1.0000   1.0000   1.0000   1.0000   0.0000   0.0000   0.0000   0.0000

          k =-0.1003 0.3008-0.1003 (  2104 PWs)   bands (ev):

    -5.3819   3.6686   5.0959   5.2712   8.3365   9.5212  10.1248  11.0667

     occupation numbers 
     1.0000   1.0000   1.0000   1.0000   0.0000   0.0000   0.0000   0.0000

          k =-0.2005 0.4010-0.2005 (  2123 PWs)   bands (ev):

    -4.8338   1.8988   4.7752   4.8350   8.4652   9.5017  10.4038  11.4007

     occupation numbers 
     1.0000   1.0000   1.0000   1.0000   0.0000   0.0000   0.0000   0.0000

          k =-0.3008 0.5013-0.3008 (  2121 PWs)   bands (ev):

    -4.1012   0.3125   4.4207   4.6274   8.3241   9.4489  10.2218  12.4646

     occupation numbers 
     1.0000   1.0000   1.0000   1.0000   0.0000   0.0000   0.0000   0.0000

          k = 0.6015-0.4010 0.6015 (  2112 PWs)   bands (ev):

    -3.4470  -0.7405   4.1277   4.6614   8.2415   9.4090   9.9527  13.8359

     occupation numbers 
     1.0000   1.0000   1.0000   1.0000   0.0000   0.0000   0.0000   0.0000

          k = 0.5013-0.3008 0.5013 (  2112 PWs)   bands (ev):

    -3.6186  -0.4868   3.9971   4.8633   8.3068   9.5376   9.7978  14.0659

     occupation numbers 
     1.0000   1.0000   1.0000   1.0000   0.0000   0.0000   0.0000   0.0000

          k = 0.4010-0.2005 0.4010 (  2119 PWs)   bands (ev):

    -4.3601   0.8112   4.0553   5.2008   8.5142   9.7307   9.7913  13.0650

     occupation numbers 
     1.0000   1.0000   1.0000   1.0000   0.0000   0.0000   0.0000   0.0000

          k = 0.3008-0.1003 0.3008 (  2106 PWs)   bands (ev):

    -5.0430   2.4729   4.3299   5.6096   8.8274   9.4901   9.8085  12.0271

     occupation numbers 
     1.0000   1.0000   1.0000   1.0000   0.0000   0.0000   0.0000   0.0000

          k = 0.2005 0.0000 0.2005 (  2107 PWs)   bands (ev):

    -5.5126   4.0908   4.9420   5.9382   9.0401   9.0987   9.2056  11.2728

     occupation numbers 
     1.0000   1.0000   1.0000   1.0000   0.0000   0.0000   0.0000   0.0000

          k = 0.0000 0.4010 0.0000 (  2093 PWs)   bands (ev):

    -5.1624   3.5127   4.6157   4.6157   7.5399   9.9658  11.0075  11.0075

     occupation numbers 
     1.0000   1.0000   1.0000   1.0000   0.0000   0.0000   0.0000   0.0000

          k =-0.1003 0.5013-0.1003 (  2113 PWs)   bands (ev):

    -4.6932   2.2604   4.1040   4.2649   7.6360   9.5279  11.2563  11.5968

     occupation numbers 
     1.0000   1.0000   1.0000   1.0000   0.0000   0.0000   0.0000   0.0000

          k =-0.2005 0.6015-0.2005 (  2112 PWs)   bands (ev):

    -4.0112   0.8103   3.4702   4.1043   7.8483  10.1622  11.0262  11.5487

     occupation numbers 
     1.0000   1.0000   1.0000   1.0000   0.0000   0.0000   0.0000   0.0000

          k = 0.7018-0.3008 0.7018 (  2117 PWs)   bands (ev):

    -3.2682  -0.3903   2.9558   4.1492   7.9138  10.7788  11.2182  11.7324

     occupation numbers 
     1.0000   1.0000   1.0000   1.0000   0.0000   0.0000   0.0000   0.0000

          k = 0.6015-0.2005 0.6015 (  2113 PWs)   bands (ev):

    -3.1107  -0.6037   2.6525   4.3902   8.1360  10.6789  10.9158  13.6391

     occupation numbers 
     1.0000   1.0000   1.0000   1.0000   0.0000   0.0000   0.0000   0.0000

          k = 0.5013-0.1003 0.5013 (  2114 PWs)   bands (ev):

    -3.7769   0.3998   2.6267   4.7915   8.5450  10.6481  10.6808  12.7684

     occupation numbers 
     1.0000   1.0000   1.0000   1.0000   0.0000   0.0000   0.0000   0.0000

          k = 0.4010 0.0000 0.4010 (  2109 PWs)   bands (ev):

    -4.5031   1.6493   3.0794   5.2661   8.9957  10.1126  10.3814  11.8017

     occupation numbers 
     1.0000   1.0000   1.0000   1.0000   0.0000   0.0000   0.0000   0.0000

          k = 0.0000 0.6015 0.0000 (  2105 PWs)   bands (ev):

    -4.3028   1.7241   3.8684   3.8684   6.9267   8.4769  12.7544  12.7544

     occupation numbers 
     1.0000   1.0000   1.0000   1.0000   0.0000   0.0000   0.0000   0.0000

          k =-0.1003 0.7018-0.1003 (  2114 PWs)   bands (ev):

    -3.6850   0.7156   3.2299   3.6619   7.1146   8.3083  13.0402  13.1743

     occupation numbers 
     1.0000   1.0000   1.0000   1.0000   0.0000   0.0000   0.0000   0.0000

          k = 0.8020-0.2005 0.8020 (  2130 PWs)   bands (ev):

    -2.9257  -0.2981   2.3859   3.6689   7.2908   9.4529  12.8496  12.9258

     occupation numbers 
     1.0000   1.0000   1.0000   1.0000   0.0000   0.0000   0.0000   0.0000

          k = 0.7018-0.1003 0.7018 (  2128 PWs)   bands (ev):

    -2.4958  -0.7834   1.8225   3.8869   7.5276  11.2511  12.5297  12.6921

     occupation numbers 
     1.0000   1.0000   1.0000   1.0000   0.0000   0.0000   0.0000   0.0000

          k = 0.6015 0.0000 0.6015 (  2135 PWs)   bands (ev):

    -3.0420  -0.1881   1.7947   4.2873   7.9815  11.8679  12.0945  12.9103

     occupation numbers 
     1.0000   1.0000   1.0000   1.0000   0.0000   0.0000   0.0000   0.0000

          k = 0.0000 0.8020 0.0000 (  2112 PWs)   bands (ev):

    -3.1318  -0.0426   3.3994   3.3994   6.6379   7.3654  14.5962  14.5963

     occupation numbers 
     1.0000   1.0000   1.0000   1.0000   0.0000   0.0000   0.0000   0.0000

          k = 0.9023-0.1003 0.9023 (  2125 PWs)   bands (ev):

    -2.3966  -0.8862   2.7987   3.3505   6.8720   7.6370  14.8475  14.9202

     occupation numbers 
     1.0000   1.0000   1.0000   1.0000   0.0000   0.0000   0.0000   0.0000

          k = 0.8020 0.0000 0.8020 (  2139 PWs)   bands (ev):

    -1.9091  -1.3125   1.9968   3.5195   7.0873   9.2241  14.2040  14.7852

     occupation numbers 
     1.0000   1.0000   1.0000   1.0000   0.0000   0.0000   0.0000   0.0000

          k = 0.0000-1.0025 0.0000 (  2100 PWs)   bands (ev):

    -1.6903  -1.6903   3.2404   3.2404   6.7636   6.7636  16.1769  16.1769

     occupation numbers 
     1.0000   1.0000   1.0000   1.0000   0.0000   0.0000   0.0000   0.0000

          k =-0.2005 0.4010 0.0000 (  2102 PWs)   bands (ev):

    -4.9956   2.7532   4.0118   5.1399   8.4374   9.8421  10.6799  10.7717

     occupation numbers 
     1.0000   1.0000   1.0000   1.0000   0.0000   0.0000   0.0000   0.0000

          k =-0.3008 0.5013-0.1003 (  2121 PWs)   bands (ev):

    -4.3786   1.3353   3.4211   4.7600   8.7876   9.7184  10.7955  11.2224

     occupation numbers 
     1.0000   1.0000   1.0000   1.0000   0.0000   0.0000   0.0000   0.0000

          k = 0.6015-0.4010 0.8020 (  2119 PWs)   bands (ev):

    -3.6217  -0.0432   3.1925   4.4050   8.8437   9.3721  11.1641  12.1331

     occupation numbers 
     1.0000   1.0000   1.0000   1.0000   0.0000   0.0000   0.0000   0.0000

          k = 0.5013-0.3008 0.7018 (  2124 PWs)   bands (ev):

    -3.1518  -0.7336   3.1340   4.2650   8.8787   9.1766  11.1226  13.9287

     occupation numbers 
     1.0000   1.0000   1.0000   1.0000   0.0000   0.0000   0.0000   0.0000

          k =-0.2005 0.6015 0.0000 (  2106 PWs)   bands (ev):

    -4.1512   1.3634   3.2776   4.0121   7.8541   9.1290  11.3033  12.6406

     occupation numbers 
     1.0000   1.0000   1.0000   1.0000   0.0000   0.0000   0.0000   0.0000

          k = 0.7018-0.3008 0.9023 (  2117 PWs)   bands (ev):

    -3.4232   0.2544   2.6523   3.6767   8.2339   9.8286  10.9233  13.0311

     occupation numbers 
     1.0000   1.0000   1.0000   1.0000   0.0000   0.0000   0.0000   0.0000

          k = 0.6015-0.2005 0.8020 (  2131 PWs)   bands (ev):

    -2.7611  -0.6225   2.2401   3.6200   8.4163  10.4500  11.5956  12.9623

     occupation numbers 
     1.0000   1.0000   1.0000   1.0000   0.0000   0.0000   0.0000   0.0000

          k = 0.5013-0.1003 0.7018 (  2128 PWs)   bands (ev):

    -2.9659  -0.3586   2.0846   3.8637   8.7638  10.1973  12.0316  12.8132

     occupation numbers 
     1.0000   1.0000   1.0000   1.0000   0.0000   0.0000   0.0000   0.0000

          k = 0.4010 0.0000 0.6015 (  2121 PWs)   bands (ev):

    -3.7119   0.6007   2.3855   4.3104   9.2703   9.7480  10.7956  12.3499

     occupation numbers 
     1.0000   1.0000   1.0000   1.0000   0.0000   0.0000   0.0000   0.0000

          k = 0.8020-0.2005 1.0025 (  2121 PWs)   bands (ev):

    -3.0110  -0.1271   2.8619   3.1924   7.5538   8.1382  12.8446  14.5827

     occupation numbers 
     1.0000   1.0000   1.0000   1.0000   0.0000   0.0000   0.0000   0.0000

          k = 0.7018-0.1003 0.9023 (  2128 PWs)   bands (ev):

    -2.2630  -0.9054   2.1437   3.1001   7.9039   9.3542  12.4404  14.2175

     occupation numbers 
     1.0000   1.0000   1.0000   1.0000   0.0000   0.0000   0.0000   0.0000

          k = 0.6015-0.0000 0.8020 (  2126 PWs)   bands (ev):

    -2.2635  -0.8826   1.7189   3.3737   8.2358  11.1745  12.0582  12.3630

     occupation numbers 
     1.0000   1.0000   1.0000   1.0000   0.0000   0.0000   0.0000   0.0000

          k =-0.2005-1.0025 0.0000 (  2130 PWs)   bands (ev):

    -1.6344  -1.6344   2.8182   2.8182   7.6275   7.6275  14.5715  14.5715

     occupation numbers 
     1.0000   1.0000   1.0000   1.0000   0.0000   0.0000   0.0000   0.0000

          k = 0.6015-0.2005 1.0025 (  2148 PWs)   bands (ev):

    -2.6831  -0.4268   2.0852   3.0867   9.4745   9.8317  10.5357  13.8636

     occupation numbers 
     1.0000   1.0000   1.0000   1.0000   0.0000   0.0000   0.0000   0.0000

          k = 0.5013-0.1003 0.9023 (  2138 PWs)   bands (ev):

    -2.1642  -0.9397   1.9239   2.8309   9.7354  10.0773  11.4758  11.9373

     occupation numbers 
     1.0000   1.0000   1.0000   1.0000   0.0000   0.0000   0.0000   0.0000

          k =-0.4010-1.0025 0.0000 (  2154 PWs)   bands (ev):

    -1.5354  -1.5354   2.2905   2.2905   9.5037   9.5037  12.0144  12.0144

     occupation numbers 
     1.0000   1.0000   1.0000   1.0000   0.0000   0.0000   0.0000   0.0000

     the Fermi energy is     6.3684 ev

!    total energy              =     -15.85352549 Ry
     Harris-Foulkes estimate   =     -15.85352568 Ry
     estimated scf accuracy    <       0.00000033 Ry

     The total energy is the sum of the following terms:

     one-electron contribution =       4.70300516 Ry
     hartree contribution      =       1.08808659 Ry
     xc contribution           =      -4.80537112 Ry
     ewald contribution        =     -16.83924612 Ry
     smearing contrib. (-TS)   =      -0.00000000 Ry

     convergence has been achieved in   4 iterations

     Forces acting on atoms (Ry/au):

     atom    1 type  1   force =     0.00000000   -0.00000000    0.00000000
     atom    2 type  1   force =    -0.00000000    0.00000000   -0.00000000
     The non-local contrib.  to forces
     atom    1 type  1   force =    -0.00000000    0.00000000    0.00000000
     atom    2 type  1   force =     0.00000000   -0.00000000   -0.00000000
     The ionic contribution  to forces
     atom    1 type  1   force =     0.00000000   -0.00000000   -0.00000000
     atom    2 type  1   force =    -0.00000000    0.00000000    0.00000000
     The local contribution  to forces
     atom    1 type  1   force =     0.00000000   -0.00000000   -0.00000000
     atom    2 type  1   force =     0.00000000   -0.00000000   -0.00000000
     The core correction contribution to forces
     atom    1 type  1   force =     0.00000000    0.00000000    0.00000000
     atom    2 type  1   force =     0.00000000    0.00000000    0.00000000
     The Hubbard contrib.    to forces
     atom    1 type  1   force =     0.00000000    0.00000000    0.00000000
     atom    2 type  1   force =     0.00000000    0.00000000    0.00000000
     The SCF correction term to forces
     atom    1 type  1   force =    -0.00000000    0.00000000   -0.00000000
     atom    2 type  1   force =     0.00000000    0.00000000    0.00000000

     Total force =     0.000000     Total SCF correction =     0.000000


     entering subroutine stress ...

          total   stress  (Ry/bohr**3)                   (kbar)     P=   -7.66
  -0.00005208   0.00000000  -0.00000000         -7.66      0.00     -0.00
   0.00000000  -0.00005208   0.00000000          0.00     -7.66      0.00
  -0.00000000   0.00000000  -0.00005208         -0.00      0.00     -7.66

     kinetic stress (kbar)   2275.42     -0.00     -0.00
                               -0.00   2275.42     -0.00
                               -0.00     -0.00   2275.42

     local   stress (kbar)  -1426.86     -0.00     -0.00
                               -0.00  -1426.86     -0.00
                               -0.00     -0.00  -1426.86

     nonloc. stress (kbar)   2825.06      0.00      0.00
                                0.00   2825.06     -0.00
                                0.00     -0.00   2825.06

     hartree stress (kbar)    198.96     -0.00     -0.00
                               -0.00    198.96      0.00
                               -0.00      0.00    198.96

     exc-cor stress (kbar)   -801.21      0.00      0.00
                                0.00   -801.21      0.00
                                0.00      0.00   -801.21

     corecor stress (kbar)      0.00      0.00      0.00
                                0.00      0.00      0.00
                                0.00      0.00      0.00

     ewald   stress (kbar)  -3079.04      0.00      0.00
                                0.00  -3079.04      0.00
                                0.00      0.00  -3079.04

     hubbard stress (kbar)      0.00      0.00      0.00
                                0.00      0.00      0.00
                                0.00      0.00      0.00

     london  stress (kbar)      0.00      0.00      0.00
                                0.00      0.00      0.00
                                0.00      0.00      0.00

     XDM     stress (kbar)      0.00      0.00      0.00
                                0.00      0.00      0.00
                                0.00      0.00      0.00

     dft-nl  stress (kbar)      0.00      0.00      0.00
                                0.00      0.00      0.00
                                0.00      0.00      0.00

     TS-vdW  stress (kbar)      0.00      0.00      0.00
                                0.00      0.00      0.00
                                0.00      0.00      0.00



     number of scf cycles    =   2
     number of bfgs steps    =   1

     enthalpy old            =     -15.8533697092 Ry
     enthalpy new            =     -15.8535254884 Ry

     CASE: enthalpy_new < enthalpy_old

     new trust radius        =       0.0088160599 bohr
     new conv_thr            =       0.0000000100 Ry

     new unit-cell volume =    266.01266 a.u.^3 (    39.41901 Ang^3 )

CELL_PARAMETERS (alat= 10.26234669)
  -0.497405696   0.000000000   0.497405696
  -0.000000000   0.497405696   0.497405696
  -0.497405696   0.497405696   0.000000000

ATOMIC_POSITIONS (alat)
Si       0.000000000  -0.000000000   0.000000000
Si       0.248702848   0.248702848   0.248702848



     Writing output data file calc.save
     NEW-OLD atomic charge density approx. for the potential
     extrapolated charge    7.93506, renormalised to    8.00000

     total cpu time spent up to now is        8.3 secs

     per-process dynamical memory:    21.5 Mb

     Self-consistent Calculation

     iteration #  1     ecut=    60.00 Ry     beta=0.70
     Davidson diagonalization with overlap
     ethr =  1.00E-06,  avg # of iterations =  2.2

     total cpu time spent up to now is        9.0 secs

     total energy              =     -15.85354276 Ry
     Harris-Foulkes estimate   =     -15.82020679 Ry
     estimated scf accuracy    <       0.00002127 Ry

     iteration #  2     ecut=    60.00 Ry     beta=0.70
     Davidson diagonalization with overlap
     ethr =  2.66E-07,  avg # of iterations =  2.3

     total cpu time spent up to now is        9.8 secs

     total energy              =     -15.85358884 Ry
     Harris-Foulkes estimate   =     -15.85359585 Ry
     estimated scf accuracy    <       0.00002148 Ry

     iteration #  3     ecut=    60.00 Ry     beta=0.70
     Davidson diagonalization with overlap
     ethr =  2.66E-07,  avg # of iterations =  1.0

     total cpu time spent up to now is       10.4 secs

     total energy              =     -15.85358626 Ry
     Harris-Foulkes estimate   =     -15.85358948 Ry
     estimated scf accuracy    <       0.00000583 Ry

     iteration #  4     ecut=    60.00 Ry     beta=0.70
     Davidson diagonalization with overlap
     ethr =  7.28E-08,  avg # of iterations =  2.0

     total cpu time spent up to now is       11.1 secs

     total energy              =     -15.85358712 Ry
     Harris-Foulkes estimate   =     -15.85358732 Ry
     estimated scf accuracy    <       0.00000040 Ry

     iteration #  5     ecut=    60.00 Ry     beta=0.70
     Davidson diagonalization with overlap
     ethr =  4.94E-09,  avg # of iterations =  1.1

     total cpu time spent up to now is       11.6 secs

     End of self-consistent calculation

          k = 0.0000 0.0000 0.0000 (  2109 PWs)   bands (ev):

    -5.8325   6.2004   6.2004   6.2004   8.7696   8.7696   8.7696   9.6356

     occupation numbers 
     1.0000   1.0000   1.0000   1.0000   0.0000   0.0000   0.0000   0.0000

          k =-0.1005 0.1005-0.1005 (  2106 PWs)   bands (ev):

    -5.6998   5.0552   5.9993   5.9993   8.7851   9.0647   9.0647  10.5284

     occupation numbers 
     1.0000   1.0000   1.0000   1.0000   0.0000   0.0000   0.0000   0.0000

          k =-0.2010 0.2010-0.2010 (  2100 PWs)   bands (ev):

    -5.3077   3.1792   5.6141   5.6141   8.4295   9.5747   9.5747  12.2499

     occupation numbers 
     1.0000   1.0000   1.0000   1.0000   0.0000   0.0000   0.0000   0.0000

          k =-0.3016 0.3016-0.3016 (  2121 PWs)   bands (ev):

    -4.6820   1.3726   5.2759   5.2759   8.0672   9.7379   9.7379  13.7789

     occupation numbers 
     1.0000   1.0000   1.0000   1.0000   0.0000   0.0000   0.0000   0.0000

          k =-0.4021 0.4021-0.4021 (  2117 PWs)   bands (ev):

    -3.9175  -0.1283   5.0618   5.0618   7.8287   9.6117   9.6117  13.9124

     occupation numbers 
     1.0000   1.0000   1.0000   1.0000   0.0000   0.0000   0.0000   0.0000

          k = 0.5026-0.5026 0.5026 (  2120 PWs)   bands (ev):

    -3.4490  -0.8459   4.9896   4.9896   7.7472   9.5327   9.5327  13.7902

     occupation numbers 
     1.0000   1.0000   1.0000   1.0000   0.0000   0.0000   0.0000   0.0000

          k = 0.0000 0.2010 0.0000 (  2121 PWs)   bands (ev):

    -5.6553   5.2791   5.6142   5.6142   8.3712   9.5679   9.5679  10.4366

     occupation numbers 
     1.0000   1.0000   1.0000   1.0000   0.0000   0.0000   0.0000   0.0000

          k =-0.1005 0.3016-0.1005 (  2104 PWs)   bands (ev):

    -5.3486   3.7510   5.1731   5.3539   8.4252   9.6358  10.2251  11.1810

     occupation numbers 
     1.0000   1.0000   1.0000   1.0000   0.0000   0.0000   0.0000   0.0000

          k =-0.2010 0.4021-0.2010 (  2123 PWs)   bands (ev):

    -4.7964   1.9696   4.8506   4.9156   8.5631   9.6078  10.5014  11.4956

     occupation numbers 
     1.0000   1.0000   1.0000   1.0000   0.0000   0.0000   0.0000   0.0000

          k =-0.3016 0.5026-0.3016 (  2121 PWs)   bands (ev):

    -4.0578   0.3721   4.4988   4.7025   8.4277   9.5429  10.3129  12.5688

     occupation numbers 
     1.0000   1.0000   1.0000   1.0000   0.0000   0.0000   0.0000   0.0000

          k = 0.6031-0.4021 0.6031 (  2112 PWs)   bands (ev):

    -3.3964  -0.6906   4.2036   4.7374   8.3485   9.4977  10.0397  13.9470

     occupation numbers 
     1.0000   1.0000   1.0000   1.0000   0.0000   0.0000   0.0000   0.0000

          k = 0.5026-0.3016 0.5026 (  2112 PWs)   bands (ev):

    -3.5702  -0.4342   4.0711   4.9413   8.4173   9.6247   9.8839  14.1784

     occupation numbers 
     1.0000   1.0000   1.0000   1.0000   0.0000   0.0000   0.0000   0.0000

          k = 0.4021-0.2010 0.4021 (  2119 PWs)   bands (ev):

    -4.3189   0.8745   4.1284   5.2814   8.6272   9.8199   9.8810  13.1859

     occupation numbers 
     1.0000   1.0000   1.0000   1.0000   0.0000   0.0000   0.0000   0.0000

          k = 0.3016-0.1005 0.3016 (  2106 PWs)   bands (ev):

    -5.0072   2.5478   4.4029   5.6931   8.9410   9.5831   9.9054  12.1513

     occupation numbers 
     1.0000   1.0000   1.0000   1.0000   0.0000   0.0000   0.0000   0.0000

          k = 0.2010 0.0000 0.2010 (  2107 PWs)   bands (ev):

    -5.4802   4.1756   5.0171   6.0238   9.1316   9.2133   9.3014  11.4191

     occupation numbers 
     1.0000   1.0000   1.0000   1.0000   0.0000   0.0000   0.0000   0.0000

          k = 0.0000 0.4021 0.0000 (  2093 PWs)   bands (ev):

    -5.1276   3.6037   4.6891   4.6891   7.6214  10.0647  11.1144  11.1144

     occupation numbers 
     1.0000   1.0000   1.0000   1.0000   0.0000   0.0000   0.0000   0.0000

          k =-0.1005 0.5026-0.1005 (  2113 PWs)   bands (ev):

    -4.6550   2.3417   4.1760   4.3361   7.7181   9.6169  11.3690  11.7050

     occupation numbers 
     1.0000   1.0000   1.0000   1.0000   0.0000   0.0000   0.0000   0.0000

          k =-0.2010 0.6031-0.2010 (  2112 PWs)   bands (ev):

    -3.9677   0.8795   3.5392   4.1748   7.9301  10.2537  11.1438  11.6505

     occupation numbers 
     1.0000   1.0000   1.0000   1.0000   0.0000   0.0000   0.0000   0.0000

          k = 0.7037-0.3016 0.7037 (  2117 PWs)   bands (ev):

    -3.2175  -0.3323   3.0215   4.2205   7.9962  10.8876  11.3148  11.8420

     occupation numbers 
     1.0000   1.0000   1.0000   1.0000   0.0000   0.0000   0.0000   0.0000

          k = 0.6031-0.2010 0.6031 (  2113 PWs)   bands (ev):

    -3.0579  -0.5484   2.7153   4.4637   8.2220  10.7883  11.0105  13.7553

     occupation numbers 
     1.0000   1.0000   1.0000   1.0000   0.0000   0.0000   0.0000   0.0000

          k = 0.5026-0.1005 0.5026 (  2114 PWs)   bands (ev):

    -3.7311   0.4652   2.6870   4.8683   8.6376  10.7451  10.7869  12.8942

     occupation numbers 
     1.0000   1.0000   1.0000   1.0000   0.0000   0.0000   0.0000   0.0000

          k = 0.4021 0.0000 0.4021 (  2109 PWs)   bands (ev):

    -4.4632   1.7248   3.1403   5.3469   9.0986  10.2104  10.4839  11.9224

     occupation numbers 
     1.0000   1.0000   1.0000   1.0000   0.0000   0.0000   0.0000   0.0000

          k = 0.0000 0.6031 0.0000 (  2105 PWs)   bands (ev):

    -4.2620   1.8067   3.9368   3.9368   7.0031   8.5545  12.8721  12.8721

     occupation numbers 
     1.0000   1.0000   1.0000   1.0000   0.0000   0.0000   0.0000   0.0000

          k =-0.1005 0.7037-0.1005 (  2114 PWs)   bands (ev):

    -3.6396   0.7915   3.2925   3.7291   7.1910   8.3866  13.1657  13.2897

     occupation numbers 
     1.0000   1.0000   1.0000   1.0000   0.0000   0.0000   0.0000   0.0000

          k = 0.8042-0.2010 0.8042 (  2130 PWs)   bands (ev):

    -2.8738  -0.2303   2.4412   3.7364   7.3661   9.5410  12.9782  13.0349

     occupation numbers 
     1.0000   1.0000   1.0000   1.0000   0.0000   0.0000   0.0000   0.0000

          k = 0.7037-0.1005 0.7037 (  2128 PWs)   bands (ev):

    -2.4384  -0.7213   1.8727   3.9562   7.6051  11.3459  12.6373  12.8227

     occupation numbers 
     1.0000   1.0000   1.0000   1.0000   0.0000   0.0000   0.0000   0.0000

          k = 0.6031 0.0000 0.6031 (  2135 PWs)   bands (ev):

    -2.9899  -0.1212   1.8442   4.3599   8.0641  11.9767  12.1959  13.0470

     occupation numbers 
     1.0000   1.0000   1.0000   1.0000   0.0000   0.0000   0.0000   0.0000

          k = 0.0000 0.8042 0.0000 (  2112 PWs)   bands (ev):

    -3.0826   0.0286   3.4648   3.4648   6.7105   7.4370  14.7254  14.7254

     occupation numbers 
     1.0000   1.0000   1.0000   1.0000   0.0000   0.0000   0.0000   0.0000

          k = 0.9047-0.1005 0.9047 (  2125 PWs)   bands (ev):

    -2.3418  -0.8205   2.8574   3.4157   6.9441   7.7141  14.9741  15.0569

     occupation numbers 
     1.0000   1.0000   1.0000   1.0000   0.0000   0.0000   0.0000   0.0000

          k = 0.8042 0.0000 0.8042 (  2139 PWs)   bands (ev):

    -1.8481  -1.2511   2.0467   3.5860   7.1607   9.3118  14.3304  14.9349

     occupation numbers 
     1.0000   1.0000   1.0000   1.0000   0.0000   0.0000   0.0000   0.0000

          k = 0.0000-1.0052 0.0000 (  2100 PWs)   bands (ev):

    -1.6308  -1.6308   3.3048   3.3048   6.8342   6.8342  16.3319  16.3319

     occupation numbers 
     1.0000   1.0000   1.0000   1.0000   0.0000   0.0000   0.0000   0.0000

          k =-0.2010 0.4021 0.0000 (  2102 PWs)   bands (ev):

    -4.9596   2.8350   4.0799   5.2203   8.5257   9.9614  10.7668  10.8766

     occupation numbers 
     1.0000   1.0000   1.0000   1.0000   0.0000   0.0000   0.0000   0.0000

          k =-0.3016 0.5026-0.1005 (  2121 PWs)   bands (ev):

    -4.3379   1.4066   3.4877   4.8368   8.8800   9.8233  10.8920  11.3245

     occupation numbers 
     1.0000   1.0000   1.0000   1.0000   0.0000   0.0000   0.0000   0.0000

          k = 0.6031-0.4021 0.8042 (  2119 PWs)   bands (ev):

    -3.5742   0.0164   3.2603   4.4781   8.9416   9.4624  11.2689  12.2372

     occupation numbers 
     1.0000   1.0000   1.0000   1.0000   0.0000   0.0000   0.0000   0.0000

          k = 0.5026-0.3016 0.7037 (  2124 PWs)   bands (ev):

    -3.0989  -0.6812   3.2025   4.3364   8.9843   9.2569  11.2257  14.0503

     occupation numbers 
     1.0000   1.0000   1.0000   1.0000   0.0000   0.0000   0.0000   0.0000

          k =-0.2010 0.6031 0.0000 (  2106 PWs)   bands (ev):

    -4.1090   1.4419   3.3404   4.0816   7.9375   9.2124  11.4154  12.7569

     occupation numbers 
     1.0000   1.0000   1.0000   1.0000   0.0000   0.0000   0.0000   0.0000

          k = 0.7037-0.3016 0.9047 (  2117 PWs)   bands (ev):

    -3.3751   0.3244   2.7116   3.7423   8.3176   9.9163  11.0340  13.1488

     occupation numbers 
     1.0000   1.0000   1.0000   1.0000   0.0000   0.0000   0.0000   0.0000

          k = 0.6031-0.2010 0.8042 (  2131 PWs)   bands (ev):

    -2.7061  -0.5618   2.2972   3.6852   8.5008  10.5475  11.7019  13.0817

     occupation numbers 
     1.0000   1.0000   1.0000   1.0000   0.0000   0.0000   0.0000   0.0000

          k = 0.5026-0.1005 0.7037 (  2128 PWs)   bands (ev):

    -2.9130  -0.2951   2.1392   3.9314   8.8516  10.2948  12.1404  12.9226

     occupation numbers 
     1.0000   1.0000   1.0000   1.0000   0.0000   0.0000   0.0000   0.0000

          k = 0.4021 0.0000 0.6031 (  2121 PWs)   bands (ev):

    -3.6659   0.6725   2.4408   4.3823   9.3647   9.8433  10.8955  12.4623

     occupation numbers 
     1.0000   1.0000   1.0000   1.0000   0.0000   0.0000   0.0000   0.0000

          k = 0.8042-0.2010 1.0052 (  2121 PWs)   bands (ev):

    -2.9604  -0.0559   2.9216   3.2539   7.6335   8.2164  12.9630  14.7119

     occupation numbers 
     1.0000   1.0000   1.0000   1.0000   0.0000   0.0000   0.0000   0.0000

          k = 0.7037-0.1005 0.9047 (  2128 PWs)   bands (ev):

    -2.2057  -0.8397   2.1954   3.1611   7.9839   9.4422  12.5554  14.3440

     occupation numbers 
     1.0000   1.0000   1.0000   1.0000   0.0000   0.0000   0.0000   0.0000

          k = 0.6031 0.0000 0.8042 (  2126 PWs)   bands (ev):

    -2.2046  -0.8180   1.7664   3.4371   8.3184  11.2664  12.1764  12.4753

     occupation numbers 
     1.0000   1.0000   1.0000   1.0000   0.0000   0.0000   0.0000   0.0000

          k =-0.2010-1.0052 0.0000 (  2130 PWs)   bands (ev):

    -1.5737  -1.5737   2.8770   2.8770   7.7053   7.7053  14.6994  14.6994

     occupation numbers 
     1.0000   1.0000   1.0000   1.0000   0.0000   0.0000   0.0000   0.0000

          k = 0.6031-0.2010 1.0052 (  2148 PWs)   bands (ev):

    -2.6288  -0.3579   2.1371   3.1462   9.5661   9.9141  10.6474  13.9821

     occupation numbers 
     1.0000   1.0000   1.0000   1.0000   0.0000   0.0000   0.0000   0.0000

          k = 0.5026-0.1005 0.9047 (  2138 PWs)   bands (ev):

    -2.1048  -0.8749   1.9740   2.8879   9.8196  10.1778  11.5776  12.0534

     occupation numbers 
     1.0000   1.0000   1.0000   1.0000   0.0000   0.0000   0.0000   0.0000

          k =-0.4021-1.0052 0.0000 (  2154 PWs)   bands (ev):

    -1.4725  -1.4724   2.3428   2.3428   9.5924   9.5924  12.1266  12.1266

     occupation numbers 
     1.0000   1.0000   1.0000   1.0000   0.0000   0.0000   0.0000   0.0000

     the Fermi energy is     6.4678 ev

!    total energy              =     -15.85358716 Ry
     Harris-Foulkes estimate   =     -15.85358717 Ry
     estimated scf accuracy    <          3.9E-09 Ry

     The total energy is the sum of the following terms:

     one-electron contribution =       4.76404437 Ry
     hartree contribution      =       1.08112014 Ry
     xc contribution           =      -4.81405589 Ry
     ewald contribution        =     -16.88469579 Ry
     smearing contrib. (-TS)   =      -0.00000000 Ry

     convergence has been achieved in   5 iterations

     Forces acting on atoms (Ry/au):

     atom    1 type  1   force =     0.00000000    0.00000000    0.00000000
     atom    2 type  1   force =     0.00000000    0.00000000    0.00000000
     The non-local contrib.  to forces
     atom    1 type  1   force =     0.00000000   -0.00000000    0.00000000
     atom    2 type  1   force =    -0.00000000    0.00000000   -0.00000000
     The ionic contribution  to forces
     atom    1 type  1   force =    -0.00000000   -0.00000000   -0.00000000
     atom    2 type  1   force =     0.00000000    0.00000000    0.00000000
     The local contribution  to forces
     atom    1 type  1   force =     0.00000000    0.00000000   -0.00000000
     atom    2 type  1   force =    -0.00000000   -0.00000000   -0.00000000
     The core correction contribution to forces
     atom    1 type  1   force =     0.00000000    0.00000000    0.00000000
     atom    2 type  1   force =     0.00000000    0.00000000    0.00000000
     The Hubbard contrib.    to forces
     atom    1 type  1   force =     0.00000000    0.00000000    0.00000000
     atom    2 type  1   force =     0.00000000    0.00000000    0.00000000
     The SCF correction term to forces
     atom    1 type  1   force =    -0.00000000    0.00000000    0.00000000
     atom    2 type  1   force =     0.00000000   -0.00000000   -0.00000000

     Total force =     0.000000     Total SCF correction =     0.000000


     entering subroutine stress ...

          total   stress  (Ry/bohr**3)                   (kbar)     P=   -0.40
  -0.00000269  -0.00000000  -0.00000000         -0.40     -0.00     -0.00
   0.00000000  -0.00000269   0.00000000          0.00     -0.40      0.00
  -0.00000000  -0.00000000  -0.00000269         -0.00     -0.00     -0.40

     kinetic stress (kbar)   2301.67      0.00     -0.00
                                0.00   2301.67     -0.00
                               -0.00     -0.00   2301.67

     local   stress (kbar)  -1433.85     -0.00     -0.00
                               -0.00  -1433.85     -0.00
                               -0.00     -0.00  -1433.85

     nonloc. stress (kbar)   2854.13      0.00     -0.00
                                0.00   2854.13      0.00
                               -0.00      0.00   2854.13

     hartree stress (kbar)    199.29     -0.00      0.00
                               -0.00    199.29      0.00
                                0.00      0.00    199.29

     exc-cor stress (kbar)   -809.21      0.00      0.00
                                0.00   -809.21      0.00
                                0.00      0.00   -809.21

     corecor stress (kbar)      0.00      0.00      0.00
                                0.00      0.00      0.00
                                0.00      0.00      0.00

     ewald   stress (kbar)  -3112.41      0.00      0.00
                                0.00  -3112.41      0.00
                                0.00      0.00  -3112.41

     hubbard stress (kbar)      0.00      0.00      0.00
                                0.00      0.00      0.00
                                0.00      0.00      0.00

     london  stress (kbar)      0.00      0.00      0.00
                                0.00      0.00      0.00
                                0.00      0.00      0.00

     XDM     stress (kbar)      0.00      0.00      0.00
                                0.00      0.00      0.00
                                0.00      0.00      0.00

     dft-nl  stress (kbar)      0.00      0.00      0.00
                                0.00      0.00      0.00
                                0.00      0.00      0.00

     TS-vdW  stress (kbar)      0.00      0.00      0.00
                                0.00      0.00      0.00
                                0.00      0.00      0.00



     bfgs converged in   3 scf cycles and   2 bfgs steps
     (criteria: energy <  1.0E-04, force <  1.0E-03, cell <  5.0E-01)

     End of BFGS Geometry Optimization

     Final enthalpy =     -15.8535871635 Ry
Begin final coordinates
     new unit-cell volume =    266.01266 a.u.^3 (    39.41901 Ang^3 )

CELL_PARAMETERS (alat= 10.26234669)
  -0.497405696   0.000000000   0.497405696
  -0.000000000   0.497405696   0.497405696
  -0.497405696   0.497405696   0.000000000

ATOMIC_POSITIONS (alat)
Si       0.000000000  -0.000000000   0.000000000
Si       0.248702848   0.248702848   0.248702848
End final coordinates



     A final scf calculation at the relaxed structure.
     The G-vectors are recalculated for the final unit cell
     Results may differ from those at the preceding step.

     G-vector sticks info
     --------------------
     sticks:   dense  smooth     PW     G-vecs:    dense   smooth      PW
     Sum         433     433    253                 5961     5961    2741



     bravais-lattice index     =            2
     lattice parameter (alat)  =      10.2623  a.u.
     unit-cell volume          =     266.0127 (a.u.)^3
     number of atoms/cell      =            2
     number of atomic types    =            1
     number of electrons       =         8.00
     number of Kohn-Sham states=            8
     kinetic-energy cutoff     =      60.0000  Ry
     charge density cutoff     =     120.0000  Ry
     convergence threshold     =      1.0E-08
     mixing beta               =       0.7000
     number of iterations used =            8  plain     mixing
     Exchange-correlation      =  SLA  PZ   NOGX NOGC ( 1  1  0  0 0 0)

     celldm(1)=  10.262347  celldm(2)=   0.000000  celldm(3)=   0.000000
     celldm(4)=   0.000000  celldm(5)=   0.000000  celldm(6)=   0.000000

     crystal axes: (cart. coord. in units of alat)
               a(1) = (  -0.497406   0.000000   0.497406 )  
               a(2) = (  -0.000000   0.497406   0.497406 )  
               a(3) = (  -0.497406   0.497406   0.000000 )  

     reciprocal axes: (cart. coord. in units 2 pi/alat)
               b(1) = ( -1.005216 -1.005216  1.005216 )  
               b(2) = (  1.005216  1.005216  1.005216 )  
               b(3) = ( -1.005216  1.005216 -1.005216 )  


     PseudoPot. # 1 for Si read from file:
     ./Si.pz-vbc.UPF
     MD5 check sum: 6dfa03ddd5817404712e03e4d12deb78
     Pseudo is Norm-conserving, Zval =  4.0
     Generated by new atomic code, or converted to UPF format
     Using radial grid of  431 points,  2 beta functions with: 
                l(1) =   0
                l(2) =   1

     atomic species   valence    mass     pseudopotential
        Si             4.00    28.08550     Si( 1.00)

     24 Sym. Ops. (no inversion) found
          (note: 24 additional sym.ops. were found but ignored
           their fractional translations are incommensurate with FFT grid)

                                    s                        frac. trans.

      isym =  1     identity                                     

 cryst.   s( 1) = (     1          0          0      )
                  (     0          1          0      )
                  (     0          0          1      )

 cart.    s( 1) = (  1.0000000  0.0000000  0.0000000 )
                  (  0.0000000  1.0000000  0.0000000 )
                  (  0.0000000  0.0000000  1.0000000 )


      isym =  2     180 deg rotation - cart. axis [0,0,1]        

 cryst.   s( 2) = (     0          1         -1      )
                  (     1          0         -1      )
                  (     0          0         -1      )

 cart.    s( 2) = ( -1.0000000  0.0000000  0.0000000 )
                  (  0.0000000 -1.0000000  0.0000000 )
                  (  0.0000000  0.0000000  1.0000000 )


      isym =  3     180 deg rotation - cart. axis [0,1,0]        

 cryst.   s( 3) = (    -1          0          0      )
                  (    -1          0          1      )
                  (    -1          1          0      )

 cart.    s( 3) = ( -1.0000000  0.0000000  0.0000000 )
[...]

     Writing output data file calc.save

     total cpu time spent up to now is       12.6 secs

     per-process dynamical memory:    21.0 Mb

     Self-consistent Calculation

     iteration #  1     ecut=    60.00 Ry     beta=0.70
     Davidson diagonalization with overlap
     ethr =  1.00E-06,  avg # of iterations = 11.4

     total cpu time spent up to now is       15.0 secs

     total energy              =     -15.84971727 Ry
     Harris-Foulkes estimate   =     -15.87117862 Ry
     estimated scf accuracy    <       0.06287440 Ry

     iteration #  2     ecut=    60.00 Ry     beta=0.70
     Davidson diagonalization with overlap
     ethr =  7.86E-04,  avg # of iterations =  1.0

     total cpu time spent up to now is       15.5 secs

     total energy              =     -15.85346902 Ry
     Harris-Foulkes estimate   =     -15.85367835 Ry
     estimated scf accuracy    <       0.00181946 Ry

     iteration #  3     ecut=    60.00 Ry     beta=0.70
     Davidson diagonalization with overlap
     ethr =  2.27E-05,  avg # of iterations =  1.9

     total cpu time spent up to now is       16.2 secs

     total energy              =     -15.85357880 Ry
     Harris-Foulkes estimate   =     -15.85358292 Ry
     estimated scf accuracy    <       0.00005009 Ry

     iteration #  4     ecut=    60.00 Ry     beta=0.70
     Davidson diagonalization with overlap
     ethr =  6.26E-07,  avg # of iterations =  2.3

     total cpu time spent up to now is       16.8 secs

     total energy              =     -15.85358579 Ry
     Harris-Foulkes estimate   =     -15.85358581 Ry
     estimated scf accuracy    <       0.00000024 Ry

     iteration #  5     ecut=    60.00 Ry     beta=0.70
     Davidson diagonalization with overlap
     ethr =  2.96E-09,  avg # of iterations =  2.9

     total cpu time spent up to now is       17.6 secs

     End of self-consistent calculation

          k = 0.0000 0.0000 0.0000 (  2085 PWs)   bands (ev):

    -5.8324   6.2005   6.2005   6.2005   8.7696   8.7696   8.7696   9.6356

     occupation numbers 
     1.0000   1.0000   1.0000   1.0000   0.0000   0.0000   0.0000   0.0000

          k =-0.1005 0.1005-0.1005 (  2079 PWs)   bands (ev):

    -5.6998   5.0553   5.9994   5.9994   8.7852   9.0648   9.0648  10.5284

     occupation numbers 
     1.0000   1.0000   1.0000   1.0000   0.0000   0.0000   0.0000   0.0000

          k =-0.2010 0.2010-0.2010 (  2079 PWs)   bands (ev):

    -5.3077   3.1793   5.6142   5.6142   8.4295   9.5748   9.5748  12.2499

     occupation numbers 
     1.0000   1.0000   1.0000   1.0000   0.0000   0.0000   0.0000   0.0000

          k =-0.3016 0.3016-0.3016 (  2081 PWs)   bands (ev):

    -4.6819   1.3727   5.2760   5.2760   8.0672   9.7379   9.7379  13.7789

     occupation numbers 
     1.0000   1.0000   1.0000   1.0000   0.0000   0.0000   0.0000   0.0000

          k =-0.4021 0.4021-0.4021 (  2078 PWs)   bands (ev):

    -3.9174  -0.1283   5.0618   5.0618   7.8288   9.6117   9.6117  13.9124

     occupation numbers 
     1.0000   1.0000   1.0000   1.0000   0.0000   0.0000   0.0000   0.0000

          k = 0.5026-0.5026 0.5026 (  2060 PWs)   bands (ev):

    -3.4489  -0.8459   4.9896   4.9896   7.7472   9.5327   9.5327  13.7902

     occupation numbers 
     1.0000   1.0000   1.0000   1.0000   0.0000   0.0000   0.0000   0.0000

          k = 0.0000 0.2010 0.0000 (  2073 PWs)   bands (ev):

    -5.6553   5.2792   5.6143   5.6143   8.3713   9.5679   9.5679  10.4367

     occupation numbers 
     1.0000   1.0000   1.0000   1.0000   0.0000   0.0000   0.0000   0.0000

          k =-0.1005 0.3016-0.1005 (  2072 PWs)   bands (ev):

    -5.3485   3.7511   5.1731   5.3540   8.4252   9.6358  10.2251  11.1811

     occupation numbers 
     1.0000   1.0000   1.0000   1.0000   0.0000   0.0000   0.0000   0.0000

          k =-0.2010 0.4021-0.2010 (  2073 PWs)   bands (ev):

    -4.7964   1.9697   4.8507   4.9157   8.5631   9.6078  10.5014  11.4957

     occupation numbers 
     1.0000   1.0000   1.0000   1.0000   0.0000   0.0000   0.0000   0.0000

          k =-0.3016 0.5026-0.3016 (  2081 PWs)   bands (ev):

    -4.0577   0.3721   4.4989   4.7025   8.4277   9.5429  10.3130  12.5688

     occupation numbers 
     1.0000   1.0000   1.0000   1.0000   0.0000   0.0000   0.0000   0.0000

          k = 0.6031-0.4021 0.6031 (  2080 PWs)   bands (ev):

    -3.3963  -0.6906   4.2036   4.7375   8.3485   9.4977  10.0397  13.9470

     occupation numbers 
     1.0000   1.0000   1.0000   1.0000   0.0000   0.0000   0.0000   0.0000

          k = 0.5026-0.3016 0.5026 (  2084 PWs)   bands (ev):

    -3.5701  -0.4342   4.0712   4.9413   8.4174   9.6247   9.8839  14.1784

     occupation numbers 
     1.0000   1.0000   1.0000   1.0000   0.0000   0.0000   0.0000   0.0000

          k = 0.4021-0.2010 0.4021 (  2080 PWs)   bands (ev):

    -4.3189   0.8746   4.1285   5.2814   8.6273   9.8199   9.8810  13.1859

     occupation numbers 
     1.0000   1.0000   1.0000   1.0000   0.0000   0.0000   0.0000   0.0000

          k = 0.3016-0.1005 0.3016 (  2081 PWs)   bands (ev):

    -5.0071   2.5479   4.4029   5.6932   8.9411   9.5831   9.9054  12.1513

     occupation numbers 
     1.0000   1.0000   1.0000   1.0000   0.0000   0.0000   0.0000   0.0000

          k = 0.2010 0.0000 0.2010 (  2079 PWs)   bands (ev):

    -5.4801   4.1757   5.0171   6.0239   9.1316   9.2134   9.3015  11.4192

     occupation numbers 
     1.0000   1.0000   1.0000   1.0000   0.0000   0.0000   0.0000   0.0000

          k = 0.0000 0.4021 0.0000 (  2073 PWs)   bands (ev):

    -5.1276   3.6038   4.6892   4.6892   7.6215  10.0647  11.1145  11.1145

     occupation numbers 
     1.0000   1.0000   1.0000   1.0000   0.0000   0.0000   0.0000   0.0000

          k =-0.1005 0.5026-0.1005 (  2074 PWs)   bands (ev):

    -4.6550   2.3418   4.1760   4.3361   7.7181   9.6169  11.3691  11.7050

     occupation numbers 
     1.0000   1.0000   1.0000   1.0000   0.0000   0.0000   0.0000   0.0000

          k =-0.2010 0.6031-0.2010 (  2088 PWs)   bands (ev):

    -3.9676   0.8795   3.5392   4.1749   7.9301  10.2537  11.1439  11.6505

     occupation numbers 
     1.0000   1.0000   1.0000   1.0000   0.0000   0.0000   0.0000   0.0000

          k = 0.7037-0.3016 0.7037 (  2090 PWs)   bands (ev):

    -3.2175  -0.3323   3.0216   4.2206   7.9962  10.8876  11.3148  11.8421

     occupation numbers 
     1.0000   1.0000   1.0000   1.0000   0.0000   0.0000   0.0000   0.0000

          k = 0.6031-0.2010 0.6031 (  2092 PWs)   bands (ev):

    -3.0579  -0.5483   2.7154   4.4637   8.2220  10.7884  11.0105  13.7553

     occupation numbers 
     1.0000   1.0000   1.0000   1.0000   0.0000   0.0000   0.0000   0.0000

          k = 0.5026-0.1005 0.5026 (  2084 PWs)   bands (ev):

    -3.7310   0.4653   2.6871   4.8684   8.6376  10.7451  10.7869  12.8942

     occupation numbers 
     1.0000   1.0000   1.0000   1.0000   0.0000   0.0000   0.0000   0.0000

          k = 0.4021 0.0000 0.4021 (  2085 PWs)   bands (ev):

    -4.4632   1.7248   3.1403   5.3470   9.0986  10.2104  10.4839  11.9224

     occupation numbers 
     1.0000   1.0000   1.0000   1.0000   0.0000   0.0000   0.0000   0.0000

          k = 0.0000 0.6031 0.0000 (  2072 PWs)   bands (ev):

    -4.2619   1.8067   3.9369   3.9369   7.0031   8.5545  12.8721  12.8721

     occupation numbers 
     1.0000   1.0000   1.0000   1.0000   0.0000   0.0000   0.0000   0.0000

          k =-0.1005 0.7037-0.1005 (  2086 PWs)   bands (ev):

    -3.6396   0.7915   3.2925   3.7292   7.1910   8.3866  13.1658  13.2897

     occupation numbers 
     1.0000   1.0000   1.0000   1.0000   0.0000   0.0000   0.0000   0.0000

          k = 0.8042-0.2010 0.8042 (  2103 PWs)   bands (ev):

    -2.8737  -0.2303   2.4412   3.7365   7.3661   9.5411  12.9782  13.0349

     occupation numbers 
     1.0000   1.0000   1.0000   1.0000   0.0000   0.0000   0.0000   0.0000

          k = 0.7037-0.1005 0.7037 (  2093 PWs)   bands (ev):

    -2.4384  -0.7213   1.8727   3.9562   7.6051  11.3459  12.6373  12.8228

     occupation numbers 
     1.0000   1.0000   1.0000   1.0000   0.0000   0.0000   0.0000   0.0000

          k = 0.6031 0.0000 0.6031 (  2097 PWs)   bands (ev):

    -2.9898  -0.1211   1.8443   4.3599   8.0641  11.9768  12.1959  13.0471

     occupation numbers 
     1.0000   1.0000   1.0000   1.0000   0.0000   0.0000   0.0000   0.0000

          k = 0.0000 0.8042 0.0000 (  2092 PWs)   bands (ev):

    -3.0826   0.0287   3.4648   3.4648   6.7105   7.4370  14.7254  14.7254

     occupation numbers 
     1.0000   1.0000   1.0000   1.0000   0.0000   0.0000   0.0000   0.0000

          k = 0.9047-0.1005 0.9047 (  2091 PWs)   bands (ev):

    -2.3417  -0.8205   2.8574   3.4157   6.9441   7.7141  14.9742  15.0570

     occupation numbers 
     1.0000   1.0000   1.0000   1.0000   0.0000   0.0000   0.0000   0.0000

          k = 0.8042 0.0000 0.8042 (  2097 PWs)   bands (ev):

    -1.8481  -1.2510   2.0467   3.5861   7.1607   9.3119  14.3304  14.9349

     occupation numbers 
     1.0000   1.0000   1.0000   1.0000   0.0000   0.0000   0.0000   0.0000

          k = 0.0000-1.0052 0.0000 (  2100 PWs)   bands (ev):

    -1.6307  -1.6307   3.3049   3.3049   6.8342   6.8342  16.3320  16.3320

     occupation numbers 
     1.0000   1.0000   1.0000   1.0000   0.0000   0.0000   0.0000   0.0000

          k =-0.2010 0.4021 0.0000 (  2075 PWs)   bands (ev):

    -4.9595   2.8351   4.0799   5.2204   8.5257   9.9615  10.7668  10.8766

     occupation numbers 
     1.0000   1.0000   1.0000   1.0000   0.0000   0.0000   0.0000   0.0000

          k =-0.3016 0.5026-0.1005 (  2086 PWs)   bands (ev):

    -4.3378   1.4067   3.4878   4.8368   8.8800   9.8234  10.8920  11.3246

     occupation numbers 
     1.0000   1.0000   1.0000   1.0000   0.0000   0.0000   0.0000   0.0000

          k = 0.6031-0.4021 0.8042 (  2079 PWs)   bands (ev):

    -3.5742   0.0164   3.2603   4.4781   8.9416   9.4624  11.2689  12.2373

     occupation numbers 
     1.0000   1.0000   1.0000   1.0000   0.0000   0.0000   0.0000   0.0000

          k = 0.5026-0.3016 0.7037 (  2084 PWs)   bands (ev):

    -3.0988  -0.6812   3.2026   4.3365   8.9844   9.2569  11.2257  13.9657

     occupation numbers 
     1.0000   1.0000   1.0000   1.0000   0.0000   0.0000   0.0000   0.0000

          k =-0.2010 0.6031 0.0000 (  2078 PWs)   bands (ev):

    -4.1090   1.4420   3.3405   4.0816   7.9376   9.2124  11.4154  12.7570

     occupation numbers 
     1.0000   1.0000   1.0000   1.0000   0.0000   0.0000   0.0000   0.0000

          k = 0.7037-0.3016 0.9047 (  2085 PWs)   bands (ev):

    -3.3750   0.3245   2.7116   3.7424   8.3176   9.9164  11.0341  13.1489

     occupation numbers 
     1.0000   1.0000   1.0000   1.0000   0.0000   0.0000   0.0000   0.0000

          k = 0.6031-0.2010 0.8042 (  2086 PWs)   bands (ev):

    -2.7060  -0.5617   2.2972   3.6852   8.5008  10.5476  11.7020  13.0817

     occupation numbers 
     1.0000   1.0000   1.0000   1.0000   0.0000   0.0000   0.0000   0.0000

          k = 0.5026-0.1005 0.7037 (  2092 PWs)   bands (ev):

    -2.9129  -0.2950   2.1393   3.9314   8.8516  10.2949  12.1404  12.9226

     occupation numbers 
     1.0000   1.0000   1.0000   1.0000   0.0000   0.0000   0.0000   0.0000

          k = 0.4021 0.0000 0.6031 (  2093 PWs)   bands (ev):

    -3.6659   0.6726   2.4408   4.3823   9.3648   9.8433  10.8955  12.4623

     occupation numbers 
     1.0000   1.0000   1.0000   1.0000   0.0000   0.0000   0.0000   0.0000

          k = 0.8042-0.2010 1.0052 (  2083 PWs)   bands (ev):

    -2.9604  -0.0558   2.9216   3.2539   7.6336   8.2164  12.9630  14.7120

     occupation numbers 
     1.0000   1.0000   1.0000   1.0000   0.0000   0.0000   0.0000   0.0000

          k = 0.7037-0.1005 0.9047 (  2097 PWs)   bands (ev):

    -2.2057  -0.8396   2.1954   3.1611   7.9839   9.4422  12.5554  14.3441

     occupation numbers 
     1.0000   1.0000   1.0000   1.0000   0.0000   0.0000   0.0000   0.0000

          k = 0.6031 0.0000 0.8042 (  2099 PWs)   bands (ev):

    -2.2046  -0.8180   1.7664   3.4371   8.3184  11.2664  12.1765  12.4753

     occupation numbers 
     1.0000   1.0000   1.0000   1.0000   0.0000   0.0000   0.0000   0.0000

          k =-0.2010-1.0052 0.0000 (  2094 PWs)   bands (ev):

    -1.5737  -1.5737   2.8771   2.8771   7.7053   7.7053  14.6994  14.6994

     occupation numbers 
     1.0000   1.0000   1.0000   1.0000   0.0000   0.0000   0.0000   0.0000

          k = 0.6031-0.2010 1.0052 (  2107 PWs)   bands (ev):

    -2.6288  -0.3579   2.1371   3.1462   9.5661   9.9141  10.6474  13.9821

     occupation numbers 
     1.0000   1.0000   1.0000   1.0000   0.0000   0.0000   0.0000   0.0000

          k = 0.5026-0.1005 0.9047 (  2108 PWs)   bands (ev):

    -2.1048  -0.8748   1.9740   2.8880   9.8196  10.1778  11.5776  12.0534

     occupation numbers 
     1.0000   1.0000   1.0000   1.0000   0.0000   0.0000   0.0000   0.0000

          k =-0.4021-1.0052 0.0000 (  2106 PWs)   bands (ev):

    -1.4724  -1.4724   2.3428   2.3428   9.5924   9.5924  12.1267  12.1267

     occupation numbers 
     1.0000   1.0000   1.0000   1.0000   0.0000   0.0000   0.0000   0.0000

     the Fermi energy is     6.4678 ev

!    total energy              =     -15.85358603 Ry
     Harris-Foulkes estimate   =     -15.85358602 Ry
     estimated scf accuracy    <          5.4E-09 Ry

     The total energy is the sum of the following terms:

     one-electron contribution =       4.76405288 Ry
     hartree contribution      =       1.08110492 Ry
     xc contribution           =      -4.81404805 Ry
     ewald contribution        =     -16.88469579 Ry
     smearing contrib. (-TS)   =      -0.00000000 Ry

     convergence has been achieved in   5 iterations

     Forces acting on atoms (Ry/au):

     atom    1 type  1   force =     0.00000000    0.00000000    0.00000000
     atom    2 type  1   force =    -0.00000000    0.00000000   -0.00000000
     The non-local contrib.  to forces
     atom    1 type  1   force =    -0.00000000    0.00000000   -0.00000000
     atom    2 type  1   force =     0.00000000    0.00000000    0.00000000
     The ionic contribution  to forces
     atom    1 type  1   force =     0.00000000   -0.00000000   -0.00000000
     atom    2 type  1   force =    -0.00000000    0.00000000    0.00000000
     The local contribution  to forces
     atom    1 type  1   force =     0.00000000   -0.00000000    0.00000000
     atom    2 type  1   force =    -0.00000000   -0.00000000   -0.00000000
     The core correction contribution to forces
     atom    1 type  1   force =     0.00000000    0.00000000    0.00000000
     atom    2 type  1   force =     0.00000000    0.00000000    0.00000000
     The Hubbard contrib.    to forces
     atom    1 type  1   force =     0.00000000    0.00000000    0.00000000
     atom    2 type  1   force =     0.00000000    0.00000000    0.00000000
     The SCF correction term to forces
     atom    1 type  1   force =     0.00000000   -0.00000000   -0.00000000
     atom    2 type  1   force =     0.00000000   -0.00000000    0.00000000

     Total force =     0.000000     Total SCF correction =     0.000000


     entering subroutine stress ...

          total   stress  (Ry/bohr**3)                   (kbar)     P=   -0.41
  -0.00000282   0.00000000   0.00000000         -0.41      0.00      0.00
   0.00000000  -0.00000282  -0.00000000          0.00     -0.41     -0.00
   0.00000000   0.00000000  -0.00000282          0.00      0.00     -0.41

     kinetic stress (kbar)   2301.64      0.00      0.00
                                0.00   2301.64     -0.00
                                0.00     -0.00   2301.64

     local   stress (kbar)  -1433.84     -0.00     -0.00
                               -0.00  -1433.84     -0.00
                               -0.00     -0.00  -1433.84

     nonloc. stress (kbar)   2854.12     -0.00      0.00
                               -0.00   2854.12      0.00
                               -0.00      0.00   2854.12

     hartree stress (kbar)    199.28      0.00     -0.00
                                0.00    199.28     -0.00
                               -0.00     -0.00    199.28

     exc-cor stress (kbar)   -809.21      0.00      0.00
                                0.00   -809.21      0.00
                                0.00      0.00   -809.21

     corecor stress (kbar)      0.00      0.00      0.00
                                0.00      0.00      0.00
                                0.00      0.00      0.00

     ewald   stress (kbar)  -3112.41      0.00      0.00
                                0.00  -3112.41      0.00
                                0.00      0.00  -3112.41

     hubbard stress (kbar)      0.00      0.00      0.00
                                0.00      0.00      0.00
                                0.00      0.00      0.00

     london  stress (kbar)      0.00      0.00      0.00
                                0.00      0.00      0.00
                                0.00      0.00      0.00

     XDM     stress (kbar)      0.00      0.00      0.00
                                0.00      0.00      0.00
                                0.00      0.00      0.00

     dft-nl  stress (kbar)      0.00      0.00      0.00
                                0.00      0.00      0.00
                                0.00      0.00      0.00

     TS-vdW  stress (kbar)      0.00      0.00      0.00
                                0.00      0.00      0.00
                                0.00      0.00      0.00



     Writing output data file calc.save

     init_run     :      0.77s CPU      0.78s WALL (       2 calls)
     electrons    :     14.71s CPU     14.80s WALL (       4 calls)
     update_pot   :      0.21s CPU      0.21s WALL (       2 calls)
     forces       :      0.35s CPU      0.35s WALL (       4 calls)
     stress       :      1.49s CPU      1.49s WALL (       4 calls)

     Called by init_run:
     wfcinit      :      0.60s CPU      0.60s WALL (       2 calls)
     potinit      :      0.04s CPU      0.04s WALL (       2 calls)

     Called by electrons:
     c_bands      :     12.81s CPU     12.89s WALL (      19 calls)
     sum_band     :      1.85s CPU      1.86s WALL (      19 calls)
     v_of_rho     :      0.03s CPU      0.03s WALL (      22 calls)
     v_h          :      0.01s CPU      0.01s WALL (      22 calls)
     v_xc         :      0.02s CPU      0.02s WALL (      22 calls)
     mix_rho      :      0.01s CPU      0.01s WALL (      19 calls)

     Called by c_bands:
     init_us_2    :      0.67s CPU      0.68s WALL (    2256 calls)
     cegterg      :     12.40s CPU     12.48s WALL (     893 calls)

     Called by sum_band:

     Called by *egterg:
     h_psi        :      9.52s CPU      9.57s WALL (    3163 calls)
     g_psi        :      0.10s CPU      0.10s WALL (    2176 calls)
     cdiaghg      :      0.23s CPU      0.23s WALL (    2928 calls)
     cegterg:over :      1.25s CPU      1.25s WALL (    2176 calls)
     cegterg:upda :      0.67s CPU      0.67s WALL (    2176 calls)
     cegterg:last :      0.48s CPU      0.48s WALL (     982 calls)

     Called by h_psi:
     h_psi:vloc   :      8.60s CPU      8.65s WALL (    3163 calls)
     h_psi:vnl    :      0.88s CPU      0.87s WALL (    3163 calls)
     add_vuspsi   :      0.41s CPU      0.41s WALL (    3163 calls)

     General routines
     calbec       :      0.64s CPU      0.63s WALL (    4103 calls)
     fft          :      0.03s CPU      0.03s WALL (     108 calls)
     fftw         :      9.43s CPU      9.45s WALL (   46830 calls)
     davcio       :      0.00s CPU      0.00s WALL (      94 calls)


     PWSCF        :    17.77s CPU        18.12s WALL


   This run was terminated on:   1:50:50   4Sep2017            

=------------------------------------------------------------------------------=
   JOB DONE.
=------------------------------------------------------------------------------=
